LAMMPS (16 Mar 2018)
  using 1 OpenMP thread(s) per MPI task
# Dissipative Particle Dynamics and Worm-like Chain model
# Silk assembly model, Greta Gronau 2011
# First equilibration

units		lj

# file name
variable	name index spider_A1B1A1B1A1B1A1B1x1200_silkworm_A1B1x0

# random number seed
variable	seed equal 11111

# shearrate
variable	shearrate equal 0.01

# temperature
variable	T equal 1

# DPD parameters
variable	cutoff equal 1.0
variable	gamma equal 4.5

# repulsive interaction parameters
variable	maxrepWW equal 25.0
variable	maxrepAA equal 25.0
variable	maxrepGG equal 25.0
variable	maxrepAW equal 40.0
variable	maxrepGW equal 26.0
variable	maxrepAG equal 27.0
variable	EHB equal 3.53
variable	hEHB equal 3.53		# in case different hEHB is used for 'a' between silkworm and spider

# number of timesteps
variable	dumpfreq equal 15000
variable	dumpfreq2 equal 10000 # dump frequency for stretch simulation
variable	tot_equil_step equal 210000
variable	tot_shear_step equal 420000
variable	tot_equilafter_step equal 150000
variable	tot_stretch_step equal 100000

variable	nfreq equal 5000
variable	nevery equal 1
variable	nrepeat equal ${nfreq}*0.5
variable	nrepeat equal 5000*0.5

timestep	0.03

atom_style	bond
comm_modify mode single vel yes

# INPUT and OUTPUT
read_data	${name}.data
read_data	spider_A1B1A1B1A1B1A1B1x1200_silkworm_A1B1x0.data
  triclinic box = (-30 -20 -20) to (30 20 20) with tilt (0 0 0)
  4 by 2 by 2 MPI processor grid
  reading atoms ...
  288000 atoms
  scanning bonds ...
  1 = max bonds/atom
  reading bonds ...
  56400 bonds
  2 = max # of 1-2 neighbors
  2 = max # of 1-3 neighbors
  4 = max # of 1-4 neighbors
  6 = max # of special neighbors

thermo			100
thermo_style	custom step temp ke pe press pxx pyy pzz pxy lx

############# force field setup #########################
pair_style	hybrid/overlay soft 1.0 dpd ${T} ${cutoff} ${seed}
pair_style	hybrid/overlay soft 1.0 dpd 1 ${cutoff} ${seed}
pair_style	hybrid/overlay soft 1.0 dpd 1 1 ${seed}
pair_style	hybrid/overlay soft 1.0 dpd 1 1 11111
pair_coeff	* * dpd 25.0 ${gamma} 1.0
pair_coeff	* * dpd 25.0 4.5 1.0
pair_coeff	1 1 soft ${EHB} 1.0
pair_coeff	1 1 soft 3.53 1.0
pair_coeff	4 4 soft ${EHB} 1.0
pair_coeff	4 4 soft 3.53 1.0
pair_coeff	1 4 soft ${hEHB} 1.0
pair_coeff	1 4 soft 3.53 1.0
pair_coeff	1 1 dpd ${maxrepAA} ${gamma} 1.0
pair_coeff	1 1 dpd 25 ${gamma} 1.0
pair_coeff	1 1 dpd 25 4.5 1.0
pair_coeff	1 2 dpd ${maxrepAG} ${gamma} 1.0
pair_coeff	1 2 dpd 27 ${gamma} 1.0
pair_coeff	1 2 dpd 27 4.5 1.0
pair_coeff	2 2 dpd ${maxrepGG} ${gamma} 1.0
pair_coeff	2 2 dpd 25 ${gamma} 1.0
pair_coeff	2 2 dpd 25 4.5 1.0
pair_coeff	1 3 dpd ${maxrepAW} ${gamma} 1.0
pair_coeff	1 3 dpd 40 ${gamma} 1.0
pair_coeff	1 3 dpd 40 4.5 1.0
pair_coeff	2 3 dpd ${maxrepGW} ${gamma} 1.0
pair_coeff	2 3 dpd 26 ${gamma} 1.0
pair_coeff	2 3 dpd 26 4.5 1.0
pair_coeff	3 3 dpd ${maxrepWW} ${gamma} 1.0
pair_coeff	3 3 dpd 25 ${gamma} 1.0
pair_coeff	3 3 dpd 25 4.5 1.0
pair_coeff	3 4 dpd 30.0 4.5 1.0
pair_coeff	3 5 dpd ${maxrepGW} 4.5 1.0
pair_coeff	3 5 dpd 26 4.5 1.0
pair_coeff	4 5 dpd ${maxrepAG} 4.5 1.0
pair_coeff	4 5 dpd 27 4.5 1.0

### bond setup ###
bond_style	harmonic
bond_coeff	1 118.5 1.025
bond_coeff	2 118.5 0.778
special_bonds	lj 1.0 1.0 1.0 coul 1.0 1.0 1.0  # LAMMPS code changed so that DPD takes coul arguments
  2 = max # of 1-2 neighbors
  6 = max # of special neighbors

### neighbor setup
neighbor		1.0 bin
neigh_modify	delay 5

group	chains type 1 2 4 5
57600 atoms in group chains
group	water type 3
230400 atoms in group water

#timestep 0.04
#fix 1 all nve/limit 0.01
#run 10000
#unfix 1

reset_timestep 0
#timestep 0.04
### Equilibration Run ###
velocity	all create ${T} ${seed} dist gaussian
velocity	all create 1 ${seed} dist gaussian
velocity	all create 1 11111 dist gaussian
dump		myDump-equil chains dcd ${dumpfreq} equil_${seed}.dcd
dump		myDump-equil chains dcd 15000 equil_${seed}.dcd
dump		myDump-equil chains dcd 15000 equil_11111.dcd
fix			1 all nve
run			${tot_equil_step}
run			210000
Neighbor list info ...
  update every 1 steps, delay 5 steps, check yes
  max neighbors/atom: 2000, page size: 100000
  master list distance cutoff = 2
  ghost atom cutoff = 2
  binsize = 1, bins = 60 40 40
  2 neighbor lists, perpetual/occasional/extra = 2 0 0
  (1) pair soft, perpetual, skip from (2)
      attributes: half, newton on
      pair build: skip
      stencil: none
      bin: none
  (2) pair dpd, perpetual
      attributes: half, newton on
      pair build: half/bin/newton/tri
      stencil: half/bin/3d/newton/tri
      bin: standard
Per MPI rank memory allocation (min/avg/max) = 14.82 | 16.79 | 19.21 Mbytes
Step Temp KinEng PotEng Press Pxx Pyy Pzz Pxy Lx 
       0            1    1.4999948    9.5379179    25.893334     26.89816    26.997493    23.784349  -0.01808381           60 
     100    1.1320012    1.6979959    4.1303547    24.209974    24.216105    24.206271    24.207545  0.018601903           60 
     200     1.050403     1.575599    3.9134872    23.812809    23.859031    23.814472    23.764925   0.01087331           60 
     300    1.0348563     1.552279    3.8261364    23.707182    23.755432     23.68503    23.681082 0.0090046799           60 
     400    1.0290435    1.5435599       3.7853    23.618613    23.604113    23.643997    23.607727  0.017317066           60 
     500     1.029305    1.5439522    3.7494208    23.572164    23.580227    23.568423    23.567842  0.011257502           60 
     600     1.029905    1.5448521    3.7199386    23.523013    23.581513    23.486819    23.500706 0.0011217167           60 
     700    1.0255951    1.5383874    3.7038533    23.500374    23.497836    23.528181    23.475106  -0.01211048           60 
     800    1.0218073    1.5327056    3.6829025    23.503276    23.526656    23.480674    23.502497  0.017744895           60 
     900    1.0254324    1.5381433    3.6668626     23.46628    23.462629    23.476127    23.460084 -0.0063042867           60 
    1000    1.0242282    1.5363369    3.6557254    23.450967     23.44226    23.491068    23.419572 -0.014177775           60 
    1100    1.0195979    1.5293916    3.6488541    23.401649    23.388325    23.428053    23.388571  0.015259766           60 
    1200     1.021626    1.5324336    3.6373662    23.388488    23.403099    23.365428    23.396936 0.0054022886           60 
    1300    1.0241232    1.5361795     3.628235    23.396362    23.379848     23.38073    23.428508 -0.00091768493           60 
    1400    1.0235948    1.5353869    3.6190464    23.399615    23.411589    23.408773    23.378483 -0.0051944045           60 
    1500    1.0235581    1.5353318    3.6143662    23.322434    23.289554    23.336773    23.340974  0.015535418           60 
    1600     1.021526    1.5322837    3.6099005    23.325752    23.382389    23.343315    23.251552 0.0052494803           60 
    1700    1.0232122     1.534813    3.6041844    23.380911    23.382225    23.423586    23.336923  0.013359576           60 
    1800    1.0250247    1.5375317     3.598371    23.307035    23.305718    23.270404    23.344982 -0.0072757228           60 
    1900    1.0224588    1.5336828    3.5917932    23.283169    23.324774    23.227824    23.296908  0.031285547           60 
    2000    1.0224366    1.5336495    3.5910838      23.2601    23.269354    23.265462    23.245485 -0.0096091017           60 
    2100    1.0186785    1.5280124    3.5887365    23.263433     23.27917    23.246704    23.264426 -0.036892923           60 
    2200    1.0209919    1.5314826    3.5805882    23.286957    23.296387    23.302039    23.262446 0.0064050751           60 
    2300    1.0219326    1.5328935    3.5788329    23.258045    23.254818    23.215685    23.303633 -0.0055067466           60 
    2400    1.0231715     1.534752    3.5747064    23.302494    23.310805    23.331814    23.264863  0.012512197           60 
    2500    1.0204412    1.5306564    3.5700197    23.261146    23.275925    23.244479    23.263033   0.02179484           60 
    2600     1.021194    1.5317857    3.5653397    23.264429     23.29506    23.237771    23.260457 0.0029045656           60 
    2700    1.0214527    1.5321737    3.5686871    23.230617      23.2245    23.237854    23.229497 -0.016235712           60 
    2800    1.0199618    1.5299374    3.5607095    23.257153    23.286551     23.26863    23.216278 -0.0081400577           60 
    2900     1.021231    1.5318411    3.5620232    23.252328    23.249314    23.268749     23.23892 -0.013363961           60 
    3000     1.023376    1.5350586    3.5571989    23.227219     23.23551    23.233261    23.212886 -0.0071352249           60 
    3100    1.0233217    1.5349771    3.5547803    23.241591    23.264385    23.225251    23.235139 -0.026521811           60 
    3200    1.0210063    1.5315042    3.5557182    23.254569    23.289235    23.255499    23.218973 -0.0012242522           60 
    3300    1.0225132    1.5337645    3.5495895    23.274459    23.288823    23.278045    23.256509 -0.031511626           60 
    3400     1.019155    1.5287272    3.5465291    23.201832    23.262194    23.160645    23.182658 -0.0098883627           60 
    3500    1.0212549     1.531877     3.545525    23.232001    23.198081    23.259929    23.237993 0.0090222809           60 
    3600    1.0222125    1.5333134    3.5449596    23.219883    23.267387    23.212431     23.17983  0.026005787           60 
    3700    1.0206326    1.5309437     3.538622    23.232357    23.257508    23.218236    23.221326 -0.0076378381           60 
    3800     1.019825    1.5297321    3.5447782    23.217605    23.235056    23.235476    23.182282  0.024993548           60 
    3900    1.0204714    1.5307017    3.5363267    23.216125    23.220029    23.211175    23.217171 0.0016362257           60 
    4000    1.0210876     1.531626    3.5362502    23.168708    23.182081    23.175242    23.148801   -0.0123663           60 
    4100    1.0201333    1.5301946    3.5339097    23.120171    23.091691    23.108147    23.160674  0.024134791           60 
    4200    1.0225855    1.5338729    3.5385001    23.205049    23.232553    23.213606    23.168986 -0.013864009           60 
    4300    1.0199191    1.5298733    3.5297019    23.216537    23.215885     23.22667    23.207056 -0.025758921           60 
    4400    1.0206152    1.5309175    3.5289317    23.215317    23.248215    23.224384    23.173351   0.01086438           60 
    4500    1.0204942     1.530736    3.5301444    23.208135    23.202812    23.227349    23.194244 -0.026216102           60 
    4600    1.0216805    1.5325154    3.5243086    23.179248    23.183137    23.161619    23.192989  0.013281724           60 
    4700    1.0212846    1.5319216    3.5313831    23.211167    23.223764     23.23016    23.179576 -0.0021609184           60 
    4800    1.0213316    1.5319921    3.5257112    23.212466    23.232881    23.233364    23.171153  0.019016948           60 
    4900    1.0208045    1.5312014    3.5220904    23.239774    23.247461    23.266603    23.205256  0.022387388           60 
    5000    1.0211402    1.5317049    3.5196228    23.205568    23.179706    23.207833    23.229167  0.059953692           60 
    5100    1.0209069    1.5313551    3.5209952    23.200086    23.224887    23.213341    23.162029   0.01813222           60 
    5200    1.0203102      1.53046    3.5200516    23.159793    23.167561    23.158102    23.153715  0.020303781           60 
    5300    1.0216085    1.5324074    3.5177941    23.171937    23.183917    23.175416    23.156479 -0.012794517           60 
    5400    1.0210595    1.5315839    3.5133358    23.185508    23.201452    23.185587    23.169486 0.0039379384           60 
    5500    1.0215646    1.5323416     3.518216    23.181802    23.216172    23.218662    23.110573  0.025195842           60 
    5600    1.0229092    1.5343585    3.5160972    23.133497    23.130506    23.172988    23.096999  0.031586867           60 
    5700    1.0210262     1.531534    3.5132262    23.178057    23.211308    23.162885    23.159977  0.032922012           60 
    5800    1.0208082     1.531207    3.5122069    23.178313    23.180564    23.187226    23.167151 -0.0030434434           60 
    5900    1.0215531    1.5323243    3.5126139    23.132847    23.138726    23.122051    23.137764   0.05016611           60 
    6000    1.0228785    1.5343124    3.5088263    23.190962     23.19751    23.197922    23.177454 -0.026383874           60 
    6100    1.0228882     1.534327    3.5077699    23.172234    23.206825    23.124921    23.184957 -0.001882775           60 
    6200     1.020608    1.5309066    3.5065256    23.210988    23.214487    23.202129    23.216348 -0.0075898289           60 
    6300    1.0198668    1.5297948    3.5083794    23.183345    23.164953    23.198563    23.186517 -0.025314234           60 
    6400    1.0241618    1.5362373    3.5083387    23.151346    23.166311    23.162392    23.125334  0.030422447           60 
    6500    1.0236711    1.5355013    3.5043841    23.168003    23.179487    23.185717    23.138806 -0.021835743           60 
    6600    1.0212403    1.5318551    3.5075125    23.148086     23.14441    23.190598    23.109251 -0.017860658           60 
    6700    1.0219359    1.5328985    3.5023189    23.203259    23.231653    23.220659    23.157465  0.042671693           60 
    6800    1.0225592    1.5338334    3.5020672    23.157999    23.191305    23.118951    23.163742 -0.029339229           60 
    6900    1.0216533    1.5324746    3.5064369     23.16615    23.144559    23.173095    23.180795 -0.0045119906           60 
    7000    1.0237417    1.5356073    3.5044305    23.137974     23.13852    23.177788    23.097615 -0.00047993975           60 
    7100    1.0222887    1.5334277    3.5047854    23.156664     23.16652    23.146742    23.156729 0.0095358685           60 
    7200    1.0182096     1.527309     3.503815    23.141257    23.173979    23.154068    23.095724 0.00083294671           60 
    7300    1.0231431    1.5347093    3.4989277    23.127812     23.13631     23.13559    23.111535 0.0028581349           60 
    7400    1.0233875    1.5350759    3.5015714     23.16508    23.190406    23.137997    23.166836   0.02807923           60 
    7500     1.021444    1.5321606    3.4984047    23.159291    23.152141    23.152271     23.17346 -0.0027257771           60 
    7600    1.0204994    1.5307437    3.5042015    23.148403    23.172181    23.183328      23.0897 -0.022969194           60 
    7700    1.0215009     1.532246    3.4962761    23.137012    23.144969    23.130597    23.135471  0.020896466           60 
    7800    1.0233373    1.5350006     3.499156    23.172121     23.15943    23.181971    23.174964 0.0023968468           60 
    7900    1.0207159    1.5310685    3.4967703    23.111207    23.120935    23.118819    23.093868 0.0033430528           60 
    8000    1.0208912    1.5313316    3.4977119    23.142547    23.181852    23.150781    23.095007  0.038854281           60 
    8100    1.0204194    1.5306238    3.4967074    23.132582    23.167018    23.075758    23.154969   0.03215665           60 
    8200    1.0212828    1.5319189    3.4934415    23.134369    23.192216    23.090907    23.119983  0.037960281           60 
    8300    1.0209209    1.5313761    3.4942618    23.141966     23.15715    23.163245    23.105503 -0.010682481           60 
    8400    1.0229235    1.5343799    3.4965002    23.155254    23.156887    23.207759    23.101115 0.0075955453           60 
    8500    1.0200076    1.5300061    3.4961995     23.11707    23.171805    23.087467    23.091939 0.0099355415           60 
    8600    1.0220808    1.5331158     3.495644    23.170479    23.180936    23.164639    23.165863 -0.052021989           60 
    8700    1.0225981    1.5338918    3.4990296    23.163585     23.13456     23.19843    23.157765 -0.0069459678           60 
    8800    1.0221983    1.5332922    3.4924732    23.155062    23.194475    23.119613    23.151096 0.0072680954           60 
    8900    1.0206009     1.530896    3.4945052    23.159249    23.215349    23.133421    23.128976  0.051154766           60 
    9000    1.0195691    1.5293483     3.495058    23.139198    23.116326    23.156458     23.14481 0.0095606685           60 
    9100    1.0204819    1.5307175     3.493688    23.122656    23.145122    23.121886    23.100959  0.002763317           60 
    9200    1.0229853    1.5344726    3.4942888    23.117037    23.131137    23.096686    23.123288 -0.018154667           60 
    9300    1.0216242     1.532431    3.4917614    23.089433    23.083343    23.073342    23.111613 0.0024749848           60 
    9400    1.0206953    1.5310377    3.4908273    23.128424    23.137917    23.143507    23.103847   0.01930635           60 
    9500    1.0217021    1.5325479    3.4897494     23.20215    23.180228    23.221518    23.204704  0.022709002           60 
    9600     1.020283    1.5304192    3.4886155    23.128529    23.155587    23.104494    23.125506  0.024517423           60 
    9700    1.0228797    1.5343142    3.4930932    23.165251    23.198931    23.171303     23.12552  0.011864995           60 
    9800    1.0203262    1.5304839    3.4918601    23.104585      23.1371    23.109273    23.067382   0.05196428           60 
    9900    1.0211847    1.5317717    3.4884043    23.172934    23.202785    23.164687    23.151331 -0.0046644083           60 
   10000    1.0196561    1.5294789    3.4863582    23.118078    23.115311    23.093223    23.145699 -0.015434633           60 
   10100    1.0212663    1.5318942    3.4936607     23.10609    23.097217    23.137853    23.083199 -0.0056983401           60 
   10200    1.0209876    1.5314761    3.4866229    23.121517    23.122623     23.16346     23.07847  0.048927187           60 
   10300    1.0243662     1.536544    3.4854405    23.183686    23.215789    23.161205    23.174063  0.047529896           60 
   10400    1.0213401    1.5320048    3.4854061    23.128495    23.096669     23.14009    23.148727 -0.0044150821           60 
   10500    1.0197891    1.5296783    3.4887513     23.14213    23.164868    23.129103     23.13242 -0.0059006277           60 
   10600    1.0215644    1.5323412    3.4865495    23.087867    23.102671    23.108656    23.052274  0.030858894           60 
   10700    1.0222503    1.5333701    3.4855536     23.10211    23.133735    23.103999    23.068595  0.018583542           60 
   10800     1.024945    1.5374122    3.4832276    23.142219    23.174702    23.133243    23.118713 -0.0017008056           60 
   10900    1.0213731    1.5320544    3.4846054    23.159912    23.187539    23.181359    23.110839 0.00013121296           60 
   11000    1.0221933    1.5332847    3.4855891    23.125042    23.124556    23.120695    23.129875  0.024165173           60 
   11100    1.0250226    1.5375286     3.484823    23.138337    23.195667    23.100004     23.11934 -0.011489103           60 
   11200    1.0228414    1.5342568     3.487788    23.091051    23.130352    23.054912    23.087888 0.00061370026           60 
   11300    1.0204918    1.5307324    3.4847138    23.137153    23.187016    23.156787    23.067657 -0.00032828496           60 
   11400    1.0214894    1.5322288     3.484263    23.123506     23.12875    23.114643    23.127124 0.0076661973           60 
   11500    1.0233731    1.5350543    3.4843876    23.170718    23.189026    23.214575    23.108552  0.045525596           60 
   11600    1.0204414    1.5306567    3.4828308    23.084857    23.079065    23.118566     23.05694 -0.014240468           60 
   11700    1.0222856     1.533423    3.4828135    23.168668     23.13723    23.199497    23.169278 -0.015417688           60 
   11800    1.0234763    1.5352092    3.4839676    23.127317    23.113696    23.157138    23.111119 0.0092742498           60 
   11900    1.0266965    1.5400394    3.4843547    23.148091    23.142129    23.182503    23.119642 0.0026377236           60 
   12000    1.0213583    1.5320321    3.4826214    23.148125    23.131216    23.162523    23.150636 -0.013052491           60 
   12100    1.0202654    1.5303928    3.4843618    23.132192    23.131856     23.17026    23.094459   0.04022683           60 
   12200    1.0232959    1.5349385    3.4811628    23.108399    23.118942    23.134863    23.071392 -0.016234682           60 
   12300    1.0210334    1.5315448    3.4823138    23.141102    23.154085    23.123479    23.145741  0.026538717           60 
   12400    1.0217602     1.532635    3.4824272     23.11763    23.127947     23.11185    23.113093  0.027700364           60 
   12500      1.01959    1.5293798    3.4827274    23.058446    23.041137    23.060298    23.073904  0.018612963           60 
   12600    1.0205811    1.5308664    3.4801327    23.118141    23.137288    23.113842    23.103294 -0.016348102           60 
   12700    1.0221414    1.5332068    3.4797891    23.134539    23.124352    23.171023    23.108242 -0.018421385           60 
   12800    1.0244497    1.5366693    3.4822775    23.144845    23.215046    23.132605    23.086886  0.027422492           60 
   12900    1.0194309     1.529141    3.4818773    23.179845    23.160143    23.206144    23.173249 0.0068169618           60 
   13000    1.0207102      1.53106    3.4802035    23.060613    23.054054    23.096569    23.031216  0.020790008           60 
   13100    1.0231633    1.5347396    3.4834606      23.1481    23.169807    23.117008    23.157484 -0.0053554456           60 
   13200    1.0226436    1.5339601    3.4790095    23.129488    23.188026    23.119834    23.080603  0.016630531           60 
   13300     1.022319    1.5334732    3.4826429    23.140943    23.176919    23.166584    23.079324 -0.0044745417           60 
   13400    1.0204985    1.5307424    3.4807856    23.110474    23.156958    23.090219    23.084245 0.0074513404           60 
   13500    1.0228095     1.534209    3.4815194    23.101988    23.094756    23.083212    23.127996 -0.008840035           60 
   13600    1.0183078    1.5274564    3.4803974    23.126108    23.138172    23.139704    23.100449 -0.0015221232           60 
   13700    1.0203864    1.5305743    3.4783942    23.132963    23.140792    23.147298    23.110799  -0.03200836           60 
   13800    1.0207797    1.5311643     3.479588    23.152684    23.160541     23.15532     23.14219  0.033189539           60 
   13900    1.0210897    1.5316293    3.4797908    23.097309    23.090137    23.078417    23.123374  0.019289861           60 
   14000     1.019442    1.5291578     3.478771    23.116855    23.125258    23.102663    23.122644  0.012865577           60 
   14100    1.0220447    1.5330617    3.4795912    23.085366    23.062168    23.116773    23.077157 -0.010244954           60 
   14200    1.0219773    1.5329607    3.4826804    23.140335    23.157737    23.121177    23.142091  0.028068085           60 
   14300    1.0220196    1.5330241    3.4752796    23.114422    23.107993    23.141341    23.093932 -0.026797504           60 
   14400    1.0241306    1.5361905    3.4766515    23.152757    23.159839    23.145323     23.15311  0.027122667           60 
   14500    1.0196772    1.5295105    3.4775114    23.113375    23.125217    23.110095    23.104813  0.029322858           60 
   14600    1.0201483    1.5302171     3.478697     23.09794    23.161938    23.095844    23.036037  0.015953035           60 
   14700    1.0229783    1.5344621     3.479485    23.133646     23.14965    23.076047    23.175241  0.030621037           60 
   14800    1.0174403    1.5261551    3.4780501     23.09296    23.071891    23.083506    23.123481  0.010047137           60 
   14900    1.0217383    1.5326021    3.4793279    23.103307    23.129322    23.115651    23.064947    0.0138841           60 
   15000    1.0203156    1.5304681    3.4778313    23.119047     23.17521    23.128029    23.053902  0.019968804           60 
   15100    1.0244766    1.5367096    3.4748152    23.143859    23.164986     23.16372     23.10287  0.020974111           60 
   15200    1.0206506    1.5309706    3.4763487     23.13709    23.137259    23.156125    23.117885  0.029443191           60 
   15300    1.0218767    1.5328098    3.4747301      23.0799    23.107037    23.096672     23.03599  0.015887563           60 
   15400    1.0238164    1.5357192    3.4763493    23.115134    23.161851    23.097208    23.086344 -0.0086005154           60 
   15500    1.0229624    1.5344382    3.4717444    23.116635    23.098373    23.118374    23.133157  0.014518805           60 
   15600    1.0222263    1.5333342    3.4732416    23.068004    23.043337    23.098976    23.061697 -0.012699883           60 
   15700    1.0191194    1.5286737    3.4717989    23.089893    23.071233    23.131276    23.067169  0.019361828           60 
   15800    1.0222201    1.5333249    3.4732843    23.093207    23.100693    23.121726    23.057201  0.022026188           60 
   15900    1.0210392    1.5315534    3.4723129    23.098038    23.119691    23.067488    23.106936 -0.014374777           60 
   16000    1.0222739    1.5334056    3.4726762    23.128199     23.10895    23.127475    23.148173 -0.014105082           60 
   16100     1.020373    1.5305542    3.4777909    23.110275    23.119518    23.094976    23.116332  0.051548985           60 
   16200    1.0190536     1.528575    3.4775879    23.104488    23.107496    23.155902    23.050067  0.039396923           60 
   16300    1.0224555    1.5336779    3.4731036    23.114089    23.101743     23.14145    23.099074 -0.017400242           60 
   16400    1.0212615     1.531887    3.4720172    23.088403     23.13699    23.075175    23.053044  0.038784481           60 
   16500     1.022206    1.5333036    3.4752485    23.138214    23.163498    23.131342    23.119801 -0.0076873217           60 
   16600    1.0228021    1.5341978    3.4730014    23.077672    23.059612    23.068146    23.105258  0.021763821           60 
   16700    1.0229438    1.5344103    3.4700726     23.14294     23.17008     23.11838    23.140361 -0.017667879           60 
   16800    1.0206396     1.530954    3.4713045    23.127865    23.147016    23.149868    23.086709  0.012845688           60 
   16900     1.018028    1.5270367    3.4692722    23.086087    23.092561    23.083386    23.082314  0.011827667           60 
   17000    1.0223001    1.5334449    3.4706983    23.117326    23.137727    23.105374    23.108876  0.010302817           60 
   17100    1.0255154    1.5382678    3.4704707    23.142082    23.137622    23.162948    23.125677 0.0084993962           60 
   17200     1.020166    1.5302436    3.4716589    23.100253    23.108651    23.117149    23.074958 0.0055866103           60 
   17300    1.0210654    1.5315928    3.4730352    23.125334    23.149792    23.124676    23.101533 -0.023170343           60 
   17400    1.0217404    1.5326053    3.4701511    23.110689    23.163333    23.102627    23.066107 -0.0085774891           60 
   17500    1.0217776    1.5326611     3.471069    23.131867    23.174837    23.112925     23.10784 -0.0010706399           60 
   17600    1.0235289    1.5352881    3.4714018     23.09065    23.094477    23.127326    23.050148  0.019024527           60 
   17700     1.019412    1.5291127    3.4705531    23.105269    23.132307    23.120866    23.062633 -0.00027701332           60 
   17800    1.0229472    1.5344155     3.471507    23.116436    23.124704    23.085541    23.139062  0.005095933           60 
   17900    1.0201837    1.5302703    3.4711955    23.118738    23.124103    23.127557    23.104554   0.04879847           60 
   18000     1.024166    1.5362437    3.4709342    23.117388    23.137942    23.108657    23.105565 -0.0081425639           60 
   18100    1.0209051    1.5313523    3.4716329    23.094931    23.120578     23.07641    23.087805 0.0098624271           60 
   18200    1.0210224    1.5315283    3.4687423    23.158607    23.171835     23.17752    23.126465   0.02605304           60 
   18300    1.0224654    1.5336928    3.4685873    23.073908    23.098633    23.062736    23.060355 0.0033498582           60 
   18400    1.0229716    1.5344521    3.4679093    23.145118    23.148726    23.127593    23.159036 -0.014987836           60 
   18500    1.0220477    1.5330662    3.4683069    23.093738    23.106242    23.095364    23.079607 -0.0098231453           60 
   18600    1.0225172    1.5337705    3.4710254    23.070899    23.113592    23.086879    23.012225 -0.0087765735           60 
   18700    1.0196028     1.529399     3.470534    23.076249    23.102602    23.073614     23.05253   0.04635103           60 
   18800    1.0219251    1.5328823    3.4715948    23.122001    23.136913    23.147451    23.081638  0.035953207           60 
   18900     1.023352    1.5350226     3.470734    23.135904    23.150491    23.147113    23.110109  0.030683123           60 
   19000    1.0221724    1.5332533    3.4691972    23.101849    23.100876    23.101598    23.103073  0.048723265           60 
   19100    1.0219664    1.5329443    3.4722643    23.089932    23.093663    23.097631    23.078501   0.02927792           60 
   19200    1.0216804    1.5325153    3.4695074    23.107355    23.103624    23.135687    23.082755  0.007327921           60 
   19300    1.0215318    1.5322924    3.4716216    23.110113     23.11241    23.172668    23.045259 0.0025538505           60 
   19400    1.0201625    1.5302384    3.4684457    23.127153    23.190478    23.105692    23.085287 -0.031505736           60 
   19500    1.0215241    1.5322808    3.4687764    23.095629    23.076055    23.150193    23.060638  -0.00382265           60 
   19600    1.0211354    1.5316978    3.4733825    23.141396    23.117469    23.140438    23.166282 -0.00083694493           60 
   19700    1.0200073    1.5300057    3.4725478    23.078655    23.092573    23.057731    23.085662 -0.0060845421           60 
   19800    1.0224484    1.5336672    3.4695577    23.111342    23.122513    23.116398    23.095115 -0.024792365           60 
   19900    1.0190372    1.5285505    3.4717915    23.108119    23.127043    23.109411    23.087901 -0.008646705           60 
   20000    1.0212851    1.5319223    3.4719908    23.150205    23.178271    23.163627    23.108717 -0.0077058223           60 
   20100    1.0214223    1.5321282    3.4704356     23.10452    23.093445    23.134864     23.08525  0.001798026           60 
   20200     1.019443    1.5291593    3.4664943    23.095313    23.152132    23.087814    23.045994  0.025927266           60 
   20300     1.024025    1.5360322    3.4668785    23.075182    23.047517    23.099819    23.078209 0.0072204865           60 
   20400    1.0191354    1.5286978    3.4671765    23.071802    23.064962    23.071718    23.078726  0.006416685           60 
   20500    1.0232889    1.5349281    3.4695843    23.118425    23.114054    23.100433    23.140789  0.049955417           60 
   20600     1.020478    1.5307116    3.4673352    23.075745    23.045296    23.099328    23.082611  0.022646683           60 
   20700    1.0203069    1.5304551    3.4659639    23.154188    23.194157    23.126574    23.141833 -0.020778394           60 
   20800    1.0214685    1.5321974    3.4684746    23.104962    23.115387     23.13947    23.060029  0.023745599           60 
   20900    1.0219353    1.5328976    3.4686782     23.09792    23.106994    23.069429    23.117337 -0.013452992           60 
   21000    1.0206429     1.530959    3.4694031    23.106445      23.1241    23.111244    23.083992  0.020165254           60 
   21100    1.0218789     1.532813    3.4660953    23.105784    23.095674    23.098617     23.12306   0.01847935           60 
   21200    1.0194779    1.5292116      3.46728    23.086095    23.115335    23.058836    23.084113   0.01566527           60 
   21300     1.020318    1.5304716    3.4660259     23.06965    23.139299    23.035511    23.034142 0.0083784708           60 
   21400    1.0216997    1.5325443     3.466747    23.114621    23.090534    23.137313    23.116018 -0.017243199           60 
   21500    1.0234272    1.5351354    3.4667155    23.089003    23.107468    23.042892    23.116648 -0.026134124           60 
   21600    1.0214776     1.532211     3.465343    23.110103    23.098028    23.147641    23.084639 0.0035122831           60 
   21700    1.0230841    1.5346209    3.4659136    23.096897    23.109049    23.128316    23.053324 0.0014782533           60 
   21800    1.0213411    1.5320063    3.4634653    23.110534    23.115399    23.120362    23.095841 -0.0063288877           60 
   21900    1.0204895     1.530729    3.4684875    23.094094    23.130629    23.100342    23.051312  0.030176475           60 
   22000    1.0230073    1.5345056    3.4685493    23.122679    23.155372    23.108931    23.103733  0.001441104           60 
   22100    1.0223936    1.5335851    3.4658055    23.101313     23.11266    23.105858     23.08542 0.0094538927           60 
   22200    1.0239436      1.53591    3.4697498      23.0871    23.096868    23.070733    23.093699 0.00077284788           60 
   22300    1.0203197    1.5304742    3.4699832     23.08582    23.097926     23.10586    23.053675  0.020415834           60 
   22400    1.0227852    1.5341725    3.4697441     23.08231    23.097604    23.073267     23.07606  0.020837149           60 
   22500    1.0184302      1.52764    3.4713678    23.075246    23.096611    23.077414    23.051713 -0.0080580135           60 
   22600    1.0200812    1.5301165    3.4682407    23.072055    23.053102    23.138991    23.024073 0.0044602805           60 
   22700    1.0209318    1.5313924    3.4666843    23.078679    23.124382    23.056892    23.054764  0.023416403           60 
   22800    1.0219622     1.532938      3.46362    23.078835    23.104872    23.080875    23.050757 0.0021214515           60 
   22900    1.0219662     1.532944    3.4649087    23.104725    23.102614    23.116772    23.094787 -0.0035431754           60 
   23000    1.0212851    1.5319223    3.4703304    23.105419    23.155782    23.092904     23.06757 -0.010547544           60 
   23100    1.0191873    1.5287756    3.4694548    23.095119    23.123802    23.076634    23.084922  0.038329682           60 
   23200    1.0261888    1.5392778    3.4657938    23.091023    23.108431    23.075588    23.089051  0.017155694           60 
   23300    1.0181942     1.527286    3.4681128    23.079174    23.092345    23.078376    23.066802 -0.0015241882           60 
   23400    1.0209133    1.5313647    3.4670873    23.059339    23.053543    23.071998    23.052474  -0.01124583           60 
   23500    1.0209335    1.5313949    3.4679377     23.09891    23.128885     23.09578    23.072066 -0.004775178           60 
   23600    1.0207649     1.531142    3.4660686    23.107517    23.131931    23.122141    23.068479  0.010652351           60 
   23700    1.0212433    1.5318597    3.4671719    23.137933    23.142302    23.176163    23.095334  0.011517346           60 
   23800    1.0226514    1.5339718    3.4673278    23.122401    23.172528     23.12972    23.064955 0.0056540788           60 
   23900    1.0222011    1.5332963    3.4679872    23.100552     23.12057    23.109298    23.071787 0.0038015113           60 
   24000    1.0206011    1.5308963    3.4664418    23.094362    23.118372    23.092845     23.07187 -0.00076282328           60 
   24100     1.020534    1.5307956    3.4634662    23.146504    23.146194    23.136177    23.157141  -0.02465215           60 
   24200    1.0255304    1.5382903     3.465586    23.096211    23.091963    23.071711    23.124959  0.013255048           60 
   24300    1.0194389     1.529153    3.4626027    23.099876    23.110292    23.115627    23.073708 0.0065047482           60 
   24400     1.024363    1.5365392    3.4684334    23.077085    23.112018    23.107738    23.011499 -0.0046253525           60 
   24500    1.0229279    1.5343866    3.4647681    23.117851    23.140378    23.119291    23.093884 -0.022440278           60 
   24600    1.0202297    1.5303392     3.464285    23.124827    23.113389    23.164466    23.096626 -0.019998944           60 
   24700    1.0224122     1.533613    3.4634746    23.113121    23.086813    23.131197    23.121354 -0.023681569           60 
   24800    1.0227201    1.5340748    3.4643119    23.135064    23.123181    23.144609    23.137402  0.017357753           60 
   24900    1.0250157    1.5375182    3.4634135    23.098235     23.13871    23.076204    23.079792 -0.012894928           60 
   25000    1.0221563    1.5332291     3.465872    23.119949    23.142241    23.115532    23.102075 -0.015162162           60 
   25100    1.0210611    1.5315863      3.46095    23.124074    23.096514    23.128598    23.147111  -0.01064916           60 
   25200    1.0235207    1.5352757    3.4612909    23.090166    23.075297    23.117906    23.077294 0.0057341304           60 
   25300    1.0221268    1.5331849    3.4633132    23.060561     23.05958    23.038661    23.083441 -0.018356097           60 
   25400    1.0224612    1.5336864    3.4646173    23.133699    23.153308    23.142529     23.10526  0.014100292           60 
   25500    1.0216903    1.5325301    3.4625068    23.099938    23.128822    23.109484    23.061508 -0.0051264772           60 
   25600    1.0212366    1.5318496    3.4620038    23.083293    23.130105    23.073814    23.045961 -0.010523626           60 
   25700    1.0225367    1.5337997    3.4647043    23.079156    23.096783    23.071688    23.068997 0.00078799093           60 
   25800    1.0198536    1.5297751    3.4632088    23.085755    23.134137    23.045209    23.077918 -0.021059244           60 
   25900    1.0187317    1.5280922    3.4606237    23.109361    23.112389    23.118581    23.097114 0.0093129315           60 
   26000    1.0224247    1.5336317    3.4603098    23.128243    23.153173    23.123911    23.107644 -0.016383203           60 
   26100    1.0188069    1.5282051     3.464356    23.124416    23.129552    23.138168    23.105529 0.0083033617           60 
   26200    1.0214383    1.5321522    3.4658177    23.097462    23.094425    23.145277    23.052685 -0.0028116554           60 
   26300    1.0204057    1.5306032    3.4636513    23.071438    23.108524    23.086342    23.019447  0.022568385           60 
   26400    1.0198136    1.5297152    3.4627334    23.117515    23.155662    23.147543    23.049341  0.003791729           60 
   26500    1.0195914    1.5293818    3.4598157    23.099494    23.124427    23.085959    23.088096 -0.0022054264           60 
   26600    1.0213487    1.5320178    3.4618087    23.102232    23.115582    23.083734    23.107379 -0.00016222355           60 
   26700    1.0225297    1.5337893    3.4657723    23.115537    23.115431    23.111487    23.119693  0.016098989           60 
   26800     1.023948    1.5359166    3.4608681    23.079185     23.03974    23.085596    23.112218 -0.010094524           60 
   26900    1.0259695    1.5389489    3.4624019    23.093045    23.126024    23.088827    23.064284 -0.030356011           60 
   27000    1.0232928    1.5349339    3.4597794    23.102889    23.108327    23.136974    23.063366  0.015146774           60 
   27100    1.0233986    1.5350925    3.4648456    23.078866    23.074676    23.112897    23.049024 -0.0086490615           60 
   27200    1.0226536    1.5339751    3.4626468    23.101609    23.102263    23.124594    23.077968 -0.019298076           60 
   27300    1.0242994    1.5364438    3.4604827    23.092136    23.092772    23.104525    23.079111  0.003244566           60 
   27400    1.0205681    1.5308469    3.4611607    23.094099    23.079211     23.11114    23.091947  0.011208754           60 
   27500    1.0226533    1.5339747    3.4591332    23.130622    23.178977    23.094134    23.118754 -0.012651866           60 
   27600    1.0232161    1.5348188    3.4633976     23.09795    23.095167    23.084254    23.114429 -0.022927838           60 
   27700    1.0213957    1.5320882    3.4681856    23.076823    23.073067    23.102604    23.054798 -0.0016457332           60 
   27800    1.0224557    1.5336782    3.4666285    23.107497    23.064407    23.157801    23.100284  0.031922064           60 
   27900     1.022593    1.5338842    3.4621086    23.081546    23.065531       23.108    23.071108  0.036002838           60 
   28000    1.0233088    1.5349578    3.4646641    23.094658    23.103157    23.098965    23.081852   0.02502115           60 
   28100    1.0222032    1.5332994     3.463732    23.077445    23.081988    23.070951    23.079394  0.014079275           60 
   28200    1.0174289     1.526138    3.4650028     23.06556    23.113052    23.055816    23.027811  0.018679353           60 
   28300    1.0227996     1.534194    3.4616961    23.078859    23.052545    23.101687    23.082344  0.010867468           60 
   28400    1.0218612    1.5327865    3.4641692    23.113821    23.139521    23.066014    23.135929  0.015795124           60 
   28500    1.0219916    1.5329822    3.4639341    23.063561    23.099695    23.058614    23.032375  0.015350353           60 
   28600    1.0225617    1.5338372    3.4603194    23.084722    23.056288    23.131308    23.066569   0.05204226           60 
   28700    1.0241016    1.5361471    3.4635493    23.136134    23.163181    23.123903    23.121318 0.0038963373           60 
   28800    1.0228872    1.5343255    3.4588346    23.073534    23.077692    23.095894    23.047016  -0.01501806           60 
   28900    1.0187077    1.5280563    3.4626974    23.070036    23.099258     23.06923    23.041619  0.013828919           60 
   29000    1.0248056     1.537203    3.4597449    23.115701    23.116542    23.128034    23.102527  0.015960224           60 
   29100    1.0208528    1.5312739    3.4602791    23.082192    23.060902    23.106672    23.079003 -0.0099935141           60 
   29200    1.0214553    1.5321777    3.4605995    23.105084     23.10115    23.123142    23.090962  -0.01892439           60 
   29300    1.0213026    1.5319485     3.460064     23.07473    23.079917    23.086607    23.057665 0.0089875364           60 
   29400    1.0186945    1.5280364    3.4618658    23.071841    23.101041    23.065255    23.049226  0.013547497           60 
   29500    1.0210957    1.5316383    3.4591509    23.077148    23.081317    23.106752    23.043376 -0.029834081           60 
   29600    1.0217537    1.5326253     3.460719    23.026973     23.03566    23.014685    23.030574  0.021869381           60 
   29700    1.0177765    1.5266594    3.4610812    23.081606    23.063381     23.11445    23.066986  0.032351683           60 
   29800    1.0226773    1.5340106    3.4588715    23.112699    23.131268    23.082017    23.124812   0.01276865           60 
   29900    1.0231383    1.5347021    3.4594164    23.133854    23.160664    23.119826    23.121072 0.0059454576           60 
   30000    1.0212512    1.5318714    3.4578762    23.092585    23.140959    23.088462    23.048334 -0.010891508           60 
   30100    1.0214962    1.5322389    3.4611958    23.099019    23.116515    23.105606    23.074935 -0.0027631848           60 
   30200    1.0198618    1.5297874    3.4567245    23.099855    23.115164    23.078971     23.10543  0.031268374           60 
   30300    1.0224942    1.5337359    3.4602957    23.126556    23.161014    23.115964    23.102692  0.014846972           60 
   30400    1.0207672    1.5311455    3.4616312    23.076651    23.093021    23.092334      23.0446 0.0040492336           60 
   30500     1.022584    1.5338707     3.457379     23.08174    23.119263    23.073824    23.052132 0.0023027762           60 
   30600    1.0192905    1.5289305    3.4604436    23.084144    23.094363    23.104425    23.053645  0.026032043           60 
   30700    1.0215889    1.5323781    3.4595657    23.065997    23.106641    23.075618    23.015732  0.018005162           60 
   30800    1.0233675    1.5350459    3.4591556     23.11482    23.119407    23.119992    23.105062 0.0077496958           60 
   30900     1.021462    1.5321877    3.4586132    23.075085    23.089002    23.076865    23.059387  0.010518429           60 
   31000    1.0211981    1.5317918    3.4605491    23.095018    23.130065    23.094834    23.060154 -0.0030202058           60 
   31100    1.0213827    1.5320688    3.4590097    23.098656    23.081095    23.090146    23.124728 -0.029056275           60 
   31200    1.0206014    1.5308969    3.4603948    23.061861    23.083977    23.058234    23.043372  0.023028255           60 
   31300    1.0232729     1.534904    3.4608062    23.065315    23.072937    23.076712    23.046294 0.0053911941           60 
   31400    1.0201941    1.5302858    3.4582591    23.119214    23.093089    23.099283     23.16527 -0.0014322886           60 
   31500    1.0227007    1.5340458    3.4607669    23.101419    23.092936    23.092801    23.118521  0.015216846           60 
   31600    1.0180807    1.5271158    3.4588989    23.062591    23.069503    23.064833    23.053437 0.0003606119           60 
   31700    1.0193979    1.5290916    3.4603742    23.023641    23.021847    23.081315     22.96776  0.058294842           60 
   31800    1.0197287    1.5295877    3.4589244    23.044433    23.055717    23.036959    23.040624 -0.0054493957           60 
   31900    1.0211351    1.5316973    3.4577615    23.085796     23.09973    23.089594    23.068064  0.044849522           60 
   32000    1.0218866    1.5328245    3.4596054    23.066762    23.072773    23.064049    23.063465  0.014712492           60 
   32100    1.0215052    1.5322525     3.461123     23.07854    23.073526    23.141786    23.020306  0.023183192           60 
   32200    1.0179144    1.5268663    3.4612702    23.094732    23.111316    23.092826    23.080054  0.025080056           60 
   32300    1.0169992    1.5254936    3.4585969    23.142928    23.159002    23.142999    23.126782  0.015828056           60 
   32400      1.02083    1.5312397    3.4607438    23.064696    23.051022    23.058999    23.084068  0.050132523           60 
   32500    1.0229663    1.5344441    3.4596609    23.109261    23.134238    23.117297    23.076247  0.019982899           60 
   32600    1.0214837    1.5322202    3.4611098    23.121446    23.087182    23.166121    23.111034 -0.0074965681           60 
   32700    1.0197974    1.5296908    3.4604141    23.087248    23.108093    23.107011    23.046639 -0.018725459           60 
   32800    1.0229367    1.5343998    3.4610432    23.069013    23.080602    23.091248    23.035189 -0.010277384           60 
   32900    1.0219436      1.53291    3.4595191    23.137435    23.159115    23.148325    23.104863  0.016659156           60 
   33000    1.0208749    1.5313071     3.459559    23.078031    23.080156     23.08199    23.071948  0.019103775           60 
   33100     1.022759    1.5341331    3.4628229    23.040456    23.039073    23.091127    22.991168 -0.0068242702           60 
   33200    1.0213893    1.5320786    3.4580986    23.081986    23.106512    23.065746    23.073701 0.0044087057           60 
   33300    1.0217012    1.5325465    3.4604486    23.062369    23.066424    23.086653    23.034031 0.0031059189           60 
   33400    1.0190022     1.528498    3.4567005    23.102112    23.083625    23.127091     23.09562  0.037540358           60 
   33500    1.0221545    1.5332264    3.4576921    23.079318    23.106884    23.094223    23.036848  0.012338098           60 
   33600    1.0198872    1.5298254    3.4562095    23.102004    23.120098    23.081004     23.10491  0.016405707           60 
   33700    1.0212138    1.5318153    3.4552634    23.103473    23.123613    23.107209    23.079596 -0.013426491           60 
   33800    1.0227189    1.5340731    3.4566685    23.080416    23.084483    23.075477    23.081289 0.00083374794           60 
   33900      1.01919    1.5287798    3.4538322    23.110939    23.131096    23.146714    23.055006 -0.015633867           60 
   34000    1.0198643    1.5297911    3.4562522    23.076748    23.113395    23.051623    23.065228 -0.0092660761           60 
   34100    1.0219467    1.5329148    3.4567231    23.082649    23.070259    23.099524    23.078165 -0.0033051886           60 
   34200    1.0214789    1.5322131    3.4561108    23.108622    23.119161     23.10108    23.105625 -0.034731614           60 
   34300    1.0216671    1.5324953    3.4555317    23.101454    23.095654    23.114544    23.094165 -0.011869398           60 
   34400    1.0214594    1.5321838    3.4523374    23.103524     23.11149    23.100011    23.099073 0.0073717837           60 
   34500    1.0219162    1.5328689    3.4567031    23.087541    23.065642    23.108246    23.088735 -0.019841999           60 
   34600    1.0235442     1.535311    3.4566611     23.07583    23.099005    23.086946     23.04154  0.034820296           60 
   34700    1.0206896    1.5310291    3.4607188    23.077175    23.061543    23.082764    23.087218 -0.0063974437           60 
   34800    1.0203684    1.5305472    3.4552557    23.118692    23.125765    23.138623    23.091689 -0.016324625           60 
   34900    1.0207463    1.5311142    3.4540128    23.069753     23.08005    23.057956    23.071251  0.059278779           60 
   35000    1.0185024    1.5277483    3.4554179    23.060085    23.071908    23.063083    23.045264  0.027202871           60 
   35100    1.0237001    1.5355449    3.4528058    23.071132    23.074248    23.074415    23.064732 -0.0031459449           60 
   35200    1.0216215     1.532427    3.4498792    23.063156    23.033679    23.127573    23.028215 0.0044716884           60 
   35300    1.0208267    1.5312347    3.4524779     23.11179    23.134977     23.10802    23.092373   0.02709849           60 
   35400    1.0205876    1.5308761    3.4547177    23.086125     23.12556    23.119614      23.0132  0.027020329           60 
   35500    1.0237122    1.5355629    3.4562052    23.065122    23.035471    23.092924    23.066971  0.025630965           60 
   35600    1.0212762     1.531909    3.4542995    23.131063    23.120701    23.145732    23.126758   0.02917437           60 
   35700    1.0223286    1.5334876     3.455321    23.104624      23.1193    23.087151    23.107421 0.0010270868           60 
   35800    1.0214269     1.532135    3.4569859    23.119561    23.140757    23.137374    23.080552  0.028821819           60 
   35900    1.0224486    1.5336676    3.4533238    23.109707    23.101024    23.128961    23.099135 0.0082140078           60 
   36000    1.0214518    1.5321724    3.4553768    23.102784    23.093822    23.126981    23.087548   0.01990149           60 
   36100    1.0202667    1.5303948    3.4531116    23.043699    23.038278    23.050204    23.042615 -0.014928894           60 
   36200    1.0195522     1.529323    3.4572584     23.10449    23.091547    23.112888    23.109037  0.023950274           60 
   36300    1.0219962    1.5329889    3.4561351    23.075777    23.090495    23.047747     23.08909   0.03293821           60 
   36400    1.0209646    1.5314416    3.4523836     23.05652    23.082412    23.049452    23.037694  0.013811629           60 
   36500    1.0170858    1.5256235    3.4519836    23.080362    23.089537    23.070117    23.081432 0.0031322399           60 
   36600    1.0237787    1.5356627    3.4554699    23.099538    23.093215    23.110976    23.094422  0.023070983           60 
   36700    1.0230064    1.5345043    3.4575035    23.089654    23.125049    23.081255    23.062658 0.0043825692           60 
   36800    1.0224834    1.5337198    3.4528934    23.131791    23.180404    23.116134    23.098836  -0.01996738           60 
   36900    1.0221856    1.5332731    3.4561824    23.074749    23.073413    23.098007    23.052828 0.0052731302           60 
   37000    1.0227758    1.5341583    3.4560418    23.092841    23.088768    23.093388    23.096367 0.0014042355           60 
   37100    1.0224796    1.5337141    3.4522865    23.074592     23.05044    23.102884    23.070452 -0.0024572983           60 
   37200    1.0228262     1.534234    3.4533611    23.110399    23.111569    23.125651    23.093979  0.018695985           60 
   37300    1.0244199    1.5366245    3.4546832    23.094011    23.124165    23.090776    23.067092 -0.015096382           60 
   37400    1.0239021    1.5358478    3.4528727    23.127369    23.161886    23.112567    23.107654  0.027385736           60 
   37500    1.0218691    1.5327983    3.4548734    23.067456    23.087193    23.061403    23.053773  0.029557659           60 
   37600    1.0204543    1.5306761    3.4553205    23.093468    23.135457    23.087002    23.057946 0.0053842471           60 
   37700    1.0233266    1.5349845    3.4565554    23.077457    23.068949    23.094002     23.06942 -0.013444275           60 
   37800    1.0218227    1.5327287     3.454338    23.070559    23.071578    23.099626    23.040472 -0.0057725091           60 
   37900    1.0224658    1.5336933    3.4544176    23.072511     23.08746    23.091586    23.038487 -0.0050197412           60 
   38000    1.0214658    1.5321935    3.4546331    23.078672    23.099332    23.106339    23.030344  0.024366648           60 
   38100    1.0207406    1.5311056    3.4536072    23.068655    23.083904    23.086145    23.035915 -0.018822483           60 
   38200    1.0232336    1.5348451    3.4564508    23.077159    23.076176    23.065354    23.089947 -0.012113227           60 
   38300    1.0204808    1.5307159    3.4562405      23.0786    23.101345    23.120349    23.014107  0.040802838           60 
   38400     1.019979    1.5299632    3.4556951    23.046116    23.071847    23.054529    23.011972 -0.0091213878           60 
   38500    1.0216461    1.5324638    3.4546742    23.052836    23.041102    23.048426     23.06898 0.0023165755           60 
   38600     1.021657    1.5324801    3.4560729    23.061778    23.062688    23.085878    23.036769  0.010969945           60 
   38700    1.0231462     1.534714    3.4573806    23.106202    23.144854    23.131823     23.04193  -0.01368969           60 
   38800    1.0244383    1.5366522    3.4557213    23.094775    23.086449    23.147219    23.050657 0.0016998818           60 
   38900    1.0219546    1.5329266    3.4559416    23.090317    23.130018    23.118755    23.022178  0.011767452           60 
   39000    1.0233357    1.5349982    3.4566504    23.088105    23.089488    23.110513    23.064314  0.031971346           60 
   39100    1.0222577    1.5333812    3.4566824    23.099795    23.119085    23.107129     23.07317 0.0097894445           60 
   39200    1.0207558    1.5311284    3.4540268    23.063842    23.054007    23.090553    23.046966  0.016247211           60 
   39300    1.0202258    1.5303335    3.4559666    23.097359    23.146814    23.107531    23.037732  0.025201702           60 
   39400    1.0205633    1.5308396      3.45524    23.067635      23.1174    23.072505    23.013002 0.0053888065           60 
   39500     1.021392    1.5320826    3.4519766    23.075304    23.101892    23.084367    23.039653  0.040921062           60 
   39600    1.0210158    1.5315184    3.4517556    23.087238    23.094225    23.160685    23.006803 -0.0073651919           60 
   39700    1.0221375    1.5332009    3.4535065    23.061337     23.09266    23.027261     23.06409  0.029800511           60 
   39800    1.0240614    1.5360867    3.4552363    23.091251    23.144008    23.066601    23.063143 -0.0071921804           60 
   39900    1.0236589     1.535483    3.4531322    23.095583    23.104606    23.112115    23.070028  0.012734826           60 
   40000    1.0201897    1.5302792    3.4571449    23.052193    23.073323    23.038714    23.044543 -0.012749638           60 
   40100    1.0204015    1.5305969    3.4508544    23.107412    23.093973    23.119587    23.108674 0.0024564337           60 
   40200    1.0251092    1.5376585    3.4533727    23.063998    23.081392    23.087047    23.023555 0.0058360124           60 
   40300    1.0197876    1.5296761    3.4535785    23.052377    23.054704    23.072889    23.029536 0.0076667909           60 
   40400    1.0252327    1.5378437    3.4542002    23.113968    23.125877    23.113104    23.102924  0.027563272           60 
   40500    1.0225334    1.5337948    3.4544826    23.067338    23.044259    23.074458    23.083299 -0.032073731           60 
   40600    1.0224214    1.5336268    3.4558696    23.106175    23.152818    23.093456    23.072251  0.017769777           60 
   40700    1.0218407    1.5327558    3.4528262    23.088725     23.08832    23.097734     23.08012 -0.0099733027           60 
   40800    1.0230593    1.5345837    3.4540437    23.108147    23.134192    23.113023    23.077225  0.026567105           60 
   40900    1.0198861    1.5298239    3.4510127    23.074381    23.065724    23.069484    23.087936  0.025859566           60 
   41000    1.0215885    1.5323775    3.4562199    23.071296    23.101548    23.066959     23.04538 -0.012910633           60 
   41100    1.0192602     1.528885    3.4524702    23.050803    23.105194    23.040503    23.006711  0.020769753           60 
   41200    1.0221212    1.5331764    3.4557185    23.067341    23.065864     23.10232    23.033839  0.030373413           60 
   41300    1.0191421    1.5287079    3.4526674    23.076726    23.071259    23.094606    23.064312 -1.673888e-05           60 
   41400    1.0202715     1.530402    3.4538023     23.09094    23.109593    23.123977    23.039249 -0.065472667           60 
   41500    1.0243261    1.5364839    3.4538038    23.114976    23.061893    23.143247    23.139789  0.010117143           60 
   41600     1.020691    1.5310312    3.4548611    23.076602     23.08246    23.108946      23.0384 0.0029422657           60 
   41700    1.0226488    1.5339679     3.451836    23.082875    23.087259     23.09928    23.062085  0.018420749           60 
   41800    1.0212237    1.5318302    3.4513912    23.094495    23.160602    23.110051    23.012833 1.7251607e-05           60 
   41900    1.0230157    1.5345183     3.451745    23.127493    23.155238    23.137733    23.089507 -0.015683655           60 
   42000    1.0204435    1.5306599    3.4533491    23.064357    23.075875    23.078795    23.038402  0.055075079           60 
   42100    1.0235932    1.5353845    3.4573917    23.051192    23.069857    23.013442    23.070279 -0.00013515804           60 
   42200    1.0209964    1.5314893    3.4566088    23.077544    23.126933    23.090087    23.015611  0.034046769           60 
   42300     1.020162    1.5302376    3.4543453    23.055445    23.039297    23.056895    23.070142  0.028728377           60 
   42400    1.0234975     1.535241    3.4515559    23.076094    23.079225    23.047103    23.101954 -0.00056953521           60 
   42500    1.0203725    1.5305534    3.4535211    23.094038    23.098865    23.120699    23.062551  0.014339034           60 
   42600     1.021524    1.5322807    3.4559583    23.086491    23.110024    23.089686    23.059764 -0.0077164645           60 
   42700     1.023347    1.5350152    3.4513085     23.13529    23.138127    23.130891    23.136854 -0.0018793441           60 
   42800    1.0222671    1.5333953    3.4540033    23.117836    23.126469    23.132821    23.094217 3.1649419e-05           60 
   42900    1.0223697    1.5335493    3.4559792    23.085941    23.064361      23.0987    23.094764 -0.0029095096           60 
   43000    1.0201782    1.5302619    3.4499572    23.100998    23.137246    23.087359    23.078391  0.032664257           60 
   43100    1.0224892    1.5337285    3.4523721    23.071662    23.077173    23.104427    23.033387  0.031072875           60 
   43200    1.0203807    1.5305657    3.4490593    23.013515    23.032071    22.994674      23.0138 0.0058084713           60 
   43300    1.0235449     1.535312    3.4562009    23.056672    23.077412    23.052506    23.040099 0.00023251203           60 
   43400    1.0244304    1.5366402    3.4541419    23.109566    23.132139    23.073441     23.12312 0.00025641647           60 
   43500    1.0237232    1.5355794    3.4532479    23.124525    23.115122    23.139686    23.118768 -0.00023054609           60 
   43600    1.0199849    1.5299721    3.4520907    23.081441    23.090193    23.108737    23.045395 -0.012274708           60 
   43700    1.0209342    1.5313959    3.4541636    23.085443    23.105664    23.064937     23.08573  0.042025898           60 
   43800    1.0206419    1.5309575    3.4518358    23.094865    23.079641    23.120141    23.084812 -0.0034345742           60 
   43900    1.0215647    1.5323418    3.4538205    23.067581    23.074587    23.075414    23.052743  0.012806068           60 
   44000    1.0224143    1.5336161    3.4551949    23.066584    23.097535    23.063818    23.038399 0.0092490915           60 
   44100    1.0239823    1.5359682    3.4499888    23.149455    23.175055    23.161254    23.112056  0.016923461           60 
   44200    1.0198039    1.5297006    3.4562557     23.08432    23.100466    23.067502    23.084991 -0.020679248           60 
   44300    1.0218495     1.532769    3.4508571    23.090318    23.107232    23.077315    23.086407 -0.021816401           60 
   44400    1.0208382     1.531252    3.4544375    23.081003    23.080207    23.100285    23.062517  -0.04237376           60 
   44500     1.021993    1.5329842    3.4527449    23.075885    23.084135    23.083023    23.060496    0.0122655           60 
   44600    1.0233415    1.5350069    3.4536219    23.080638    23.071729    23.093428    23.076759  0.012437193           60 
   44700    1.0210748    1.5316068    3.4508991    23.101396    23.107153     23.11041    23.086625 -0.014673355           60 
   44800    1.0210789     1.531613    3.4544692    23.082868    23.122223    23.091219    23.035163 -0.0079862636           60 
   44900    1.0210021    1.5314978    3.4547152    23.059574    23.088809      23.0453    23.044613 -0.0074036128           60 
   45000    1.0243341    1.5364958    3.4544407    23.059564    23.044256    23.057814    23.076623  0.017261883           60 
   45100    1.0212218    1.5318273    3.4522625    23.045092    23.070116     23.05125    23.013911  0.029685191           60 
   45200    1.0213142     1.531966    3.4531983    23.078517    23.122512    23.050266    23.062772  0.006158033           60 
   45300    1.0198409     1.529756    3.4506608    23.082853    23.084414    23.098944    23.065202 0.0069875873           60 
   45400    1.0244571    1.5366802    3.4529977    23.059742    23.097953    23.012884    23.068388 -0.0085251297           60 
   45500    1.0221456     1.533213    3.4538045    23.066117    23.070696     23.06253    23.065125 -0.0054645786           60 
   45600    1.0189009    1.5283461    3.4507536     23.09719    23.084069     23.12095    23.086549  0.023284645           60 
   45700    1.0222558    1.5333783    3.4538293    23.088257    23.132671    23.067146    23.064954  0.012133919           60 
   45800    1.0215188    1.5322729    3.4541881    23.089326    23.089584    23.115999    23.062395  0.011288956           60 
   45900    1.0195747    1.5293568    3.4542692    23.122257    23.119449    23.127395    23.119928 -0.0072979415           60 
   46000    1.0200446    1.5300616    3.4505925     23.06526    23.087343    23.108676    22.999762  0.037043638           60 
   46100    1.0248779    1.5373115    3.4502284    23.080851    23.110709    23.085673    23.046169 -0.016431518           60 
   46200    1.0211094    1.5316587    3.4501036    23.093019    23.101001    23.060503    23.117552  0.054206934           60 
   46300    1.0230561    1.5345789    3.4538833     23.07665    23.111041    23.072604    23.046305  0.010423556           60 
   46400    1.0208321    1.5312428    3.4512474    23.108893     23.13163    23.083568    23.111481 -1.0091052e-05           60 
   46500     1.022659    1.5339831    3.4517951    23.058547    23.076473     23.06779    23.031377  0.045380645           60 
   46600    1.0220098    1.5330094    3.4547623    23.078434    23.116948    23.081051    23.037304  0.052426054           60 
   46700    1.0213179    1.5319716    3.4554767    23.069048    23.070472    23.106544    23.030127 -0.036164262           60 
   46800    1.0199223    1.5298781    3.4498199    23.057831    23.081987     23.05493    23.036577  0.037508699           60 
   46900      1.02315    1.5347197    3.4524016    23.084046    23.106699    23.084082    23.061357  -0.01075927           60 
   47000    1.0219023    1.5328481    3.4522086    23.059763    23.112602    23.047545    23.019144  0.014705278           60 
   47100    1.0209175     1.531371    3.4515321    23.056427    23.016732    23.125578    23.026971 0.0016817998           60 
   47200    1.0212485    1.5318675    3.4507249    23.086239    23.098183    23.095197    23.065337  0.002601086           60 
   47300    1.0226795     1.534014    3.4501159    23.091029    23.092333    23.076081    23.104671 0.0097984877           60 
   47400    1.0238186    1.5357226     3.455795    23.067668    23.078479    23.063556     23.06097  0.022362884           60 
   47500    1.0236366    1.5354495    3.4525063    23.096525    23.154061    23.101855    23.033661 -0.042611169           60 
   47600    1.0206479    1.5309665    3.4504935     23.05538    23.085838    23.042678    23.037625  0.011363496           60 
   47700    1.0238647    1.5357917    3.4533386    23.087301    23.072816    23.109845    23.079241 0.0064942353           60 
   47800    1.0198028    1.5296989    3.4525765     23.07757    23.076346    23.065176    23.091188 -0.013130784           60 
   47900    1.0244235    1.5366299    3.4531201    23.057551    23.064588    23.094954    23.013112 -0.0055607475           60 
   48000    1.0222512    1.5333715    3.4517471     23.06832    23.092955    23.086034    23.025972 -0.024874288           60 
   48100    1.0203019    1.5304475    3.4509353    23.083763    23.081086    23.079673     23.09053 0.0015432069           60 
   48200    1.0227467    1.5341147    3.4514538    23.060494     23.07265    23.045082    23.063751  0.049510831           60 
   48300    1.0206891    1.5310283    3.4521197    23.084987       23.093      23.0672    23.094762 0.0086694118           60 
   48400    1.0236309    1.5354409    3.4473242    23.067125    23.091395    23.070399    23.039581 -0.0026862251           60 
   48500    1.0217302      1.53259    3.4495264    23.075268      23.0462    23.094731    23.084871  0.015481562           60 
   48600    1.0271435    1.5407099    3.4498561    23.134412    23.133213    23.151448    23.118574 -0.023376945           60 
   48700    1.0215709    1.5323511    3.4484016    23.072143    23.028821    23.100683    23.086926 -0.0091540889           60 
   48800     1.019647    1.5294652    3.4505555    23.071053    23.069013    23.074173    23.069972 0.0047383526           60 
   48900    1.0238815     1.535817    3.4543612    23.054999    23.038507    23.068439    23.058052 -0.00016574389           60 
   49000      1.02059    1.5308797    3.4462431    23.069316    23.066789    23.067219    23.073938 0.0065662087           60 
   49100    1.0214879    1.5322266     3.451105    23.081137     23.08419    23.088542    23.070679 0.0069714702           60 
   49200    1.0215595     1.532334     3.450803    23.077257     23.10231     23.06171    23.067752   0.01992995           60 
   49300    1.0224022     1.533598    3.4516682    23.092465    23.055512    23.096904     23.12498  0.029397972           60 
   49400     1.021354    1.5320257    3.4523079     23.11432    23.159049     23.07805    23.105862  0.012164068           60 
   49500    1.0215541    1.5323259    3.4528994    23.091637    23.106285    23.123909    23.044718  0.028291169           60 
   49600    1.0212795     1.531914    3.4504889    23.050802    23.012304    23.103088    23.037015 0.00084896885           60 
   49700     1.023454    1.5351756    3.4554674    23.057572    23.058665    23.056453    23.057596 -0.015326184           60 
   49800    1.0213388    1.5320029    3.4497485    23.082421    23.071029     23.11285    23.063384 0.0065115786           60 
   49900     1.023753    1.5356242    3.4502186    23.054022     23.11547     23.03935    23.007246  0.031362598           60 
   50000    1.0225151    1.5337673     3.454208    23.118385    23.125832    23.132574     23.09675  0.016180293           60 
   50100    1.0221081    1.5331568    3.4527529    23.058899    23.063956    23.041527    23.071213  0.015292327           60 
   50200    1.0238123    1.5357131     3.447908    23.157929    23.185259    23.158474    23.130053  0.045168885           60 
   50300    1.0211031    1.5316494    3.4497967    23.062354    23.045158    23.092203    23.049702  0.053711898           60 
   50400    1.0222055    1.5333029    3.4502476    23.071344    23.088071    23.069804    23.056157  0.012250957           60 
   50500    1.0216324    1.5324433    3.4532499    23.055757    23.068446    23.074949    23.023878 -0.0097668225           60 
   50600    1.0193196    1.5289741    3.4512023    23.054463    23.064839    23.037399    23.061152 0.00055888697           60 
   50700    1.0215537    1.5323252    3.4498757    23.053469    23.114004    23.029096    23.017306 -0.004796538           60 
   50800    1.0213346    1.5319965    3.4506306    23.057855    23.040357    23.075672    23.057536 -0.010503708           60 
   50900    1.0222521    1.5333728    3.4474165    23.084666    23.106914    23.089351    23.057731  0.019512407           60 
   51000    1.0223814    1.5335668    3.4554187    23.036992    23.067292     23.06043    22.983255  0.040397361           60 
   51100    1.0248366    1.5372495    3.4476662    23.123169    23.136546    23.121881    23.111079 0.0013175047           60 
   51200    1.0199895     1.529979    3.4496766     23.08623    23.105462    23.072223    23.081007  0.023816769           60 
   51300    1.0187969      1.52819    3.4506759    23.073467     23.11395    23.021039    23.085412  0.021621258           60 
   51400    1.0190329    1.5285441    3.4527046    23.040938    23.062979    22.995667    23.064167  0.018978033           60 
   51500    1.0194706    1.5292005    3.4498156    23.079275     23.08073    23.111872    23.045224  0.021683883           60 
   51600    1.0208741    1.5313058    3.4521169    23.095957    23.118547    23.129456    23.039869  0.045831071           60 
   51700    1.0221096     1.533159    3.4528667    23.089363    23.062862    23.097453    23.107774  0.045625098           60 
   51800    1.0230368    1.5345498    3.4515044    23.081415    23.096793    23.098943     23.04851 -0.010910774           60 
   51900    1.0211234    1.5316798    3.4531419     23.07587    23.087418    23.100805    23.039388 0.0057469237           60 
   52000    1.0213585    1.5320325    3.4496421    23.084684     23.11882    23.074887    23.060344 -0.026234964           60 
   52100    1.0236243    1.5354311    3.4524706    23.089389    23.100984    23.099979    23.067203 0.0093375835           60 
   52200    1.0219787    1.5329627    3.4523848    23.101757     23.09147    23.146003    23.067799   0.02554769           60 
   52300    1.0205277    1.5307862    3.4498442    23.065451    23.083358     23.05261    23.060385 -0.0020386467           60 
   52400    1.0193145    1.5289664    3.4521407    23.069002    23.086271    23.062009    23.058727  0.034108313           60 
   52500    1.0219332    1.5328945    3.4484462    23.086079    23.106255    23.099213    23.052769  0.032495207           60 
   52600    1.0201905    1.5302805    3.4534215    23.083232    23.113632    23.103895    23.032169 0.0013277177           60 
   52700    1.0198438    1.5297603    3.4516729    23.124524    23.169321    23.125714    23.078538  0.075489221           60 
   52800    1.0247204    1.5370753    3.4517324    23.090111    23.097359    23.075435    23.097539 0.0041629895           60 
   52900    1.0225155     1.533768    3.4493317     23.07292     23.13078    23.019228    23.068751 -0.022876546           60 
   53000    1.0216544    1.5324763    3.4490729    23.071587    23.074743    23.100421    23.039598  0.019248678           60 
   53100    1.0208123    1.5312131    3.4492435     23.08739    23.079519    23.091231    23.091421 0.0018342815           60 
   53200    1.0200989    1.5301431    3.4504002    23.061949    23.075651    23.102914    23.007281 -0.016657895           60 
   53300    1.0202989     1.530443    3.4561676    23.082091    23.088593    23.100665    23.057015  0.033800601           60 
   53400    1.0187373    1.5281006    3.4518393    23.037824    23.064775    23.051822    22.996874   0.02275293           60 
   53500    1.0202273    1.5303356    3.4510893    23.061748    23.090745    23.055574    23.038925 0.0040712714           60 
   53600    1.0220339    1.5330456    3.4511878    23.093143    23.089067    23.093432    23.096931 -0.00010228507           60 
   53700    1.0235204    1.5352753    3.4521769    23.101174    23.132088    23.086396    23.085039 0.0094836083           60 
   53800    1.0215332    1.5322945    3.4500643    23.107685     23.11507    23.127319    23.080665  -0.01171441           60 
   53900    1.0200886    1.5301276    3.4511172    23.088838     23.12321    23.108286    23.035019  0.032193123           60 
   54000    1.0223312    1.5334914    3.4546567    23.105285    23.084712    23.108326    23.122818  0.016520333           60 
   54100    1.0187017    1.5280473    3.4552102    23.094828    23.108839    23.094016    23.081629  0.040287519           60 
   54200    1.0243636    1.5365401    3.4535994    23.137815    23.164007    23.140045    23.109394 -0.0037944312           60 
   54300    1.0232249     1.534832    3.4476287    23.090162    23.131651    23.085883    23.052952  0.005349896           60 
   54400    1.0215575     1.532331     3.449837    23.083748    23.100463    23.071135    23.079644   0.01669986           60 
   54500    1.0195434    1.5293098    3.4515864    23.075573    23.102376    23.080179    23.044164 -0.0081882884           60 
   54600    1.0220666    1.5330946    3.4482825    23.129314    23.138938    23.137679    23.111325  0.012988217           60 
   54700    1.0210129     1.531514    3.4490899    23.096411    23.106267    23.094741    23.088226 -0.0095496951           60 
   54800    1.0216618    1.5324873    3.4508382    23.099868    23.095274    23.114785    23.089545 -0.017655571           60 
   54900    1.0217428    1.5326089    3.4513642    23.070395    23.078228    23.088993    23.043965  0.013215299           60 
   55000    1.0199551    1.5299274    3.4510723    23.039387    23.056322      23.0563     23.00554  0.012376079           60 
   55100    1.0199635    1.5299399    3.4493619    23.126915    23.139144    23.157079    23.084524  0.058798659           60 
   55200    1.0224298    1.5336394    3.4526362    23.081919     23.10722    23.081821    23.056715 0.0075923804           60 
   55300    1.0228238    1.5342304    3.4487647    23.119186    23.143778     23.12179    23.091991  0.036550682           60 
   55400    1.0223043    1.5334511    3.4493117    23.087186    23.064117    23.113911     23.08353 -0.007259465           60 
   55500    1.0239234    1.5358798    3.4488895     23.08826    23.052013    23.149586     23.06318  0.063362595           60 
   55600    1.0202281    1.5303368    3.4502996    23.067996    23.074677    23.074316    23.054994  0.011472148           60 
   55700     1.022999    1.5344932    3.4512047    23.064197    23.082769    23.097915    23.011906 0.0076429278           60 
   55800    1.0202363    1.5303491    3.4496696    23.020922    23.040343    23.034003    22.988419  0.019925887           60 
   55900    1.0216931    1.5325344    3.4496515    23.093144    23.102014    23.092249     23.08517  0.021611589           60 
   56000      1.02169    1.5325298    3.4491267    23.105299    23.142531    23.109802    23.063563 -0.014502058           60 
   56100    1.0213306    1.5319906     3.447379    23.103461    23.106409    23.124405    23.079569 0.00089190313           60 
   56200    1.0226197    1.5339242    3.4468454    23.100132    23.123585    23.076726    23.100086   0.00309036           60 
   56300    1.0201166    1.5301695    3.4509853    23.073873    23.096559    23.073326    23.051736 -0.004488015           60 
   56400    1.0197368    1.5295999    3.4468399    23.094552    23.068998    23.116779    23.097879  0.015896037           60 
   56500    1.0227761    1.5341589    3.4472531    23.104652    23.139346    23.107575    23.067035 -0.00014679701           60 
   56600    1.0221259    1.5331835    3.4459904    23.065524    23.102299    23.047069    23.047205 0.00015915658           60 
   56700    1.0195844    1.5293714    3.4512392    23.096319    23.147591    23.095402    23.045966  0.017334153           60 
   56800    1.0204713    1.5307016    3.4502707    23.054994    23.054833    23.050732    23.059417  -0.01848105           60 
   56900     1.021759    1.5326331    3.4548092    23.062417     23.07827    23.073336    23.035645  0.024876949           60 
   57000    1.0222538    1.5333754    3.4476701    23.068246    23.120229     23.07021    23.014301  0.030836788           60 
   57100    1.0267934    1.5401847    3.4513688    23.094267    23.124381    23.093495    23.064926  0.013589912           60 
   57200    1.0215944    1.5323863    3.4515984     23.07976    23.065631     23.14034     23.03331 -0.0088166086           60 
   57300    1.0232354    1.5348477     3.451754    23.091229     23.04275    23.094111    23.136825 -0.0028104866           60 
   57400    1.0216712    1.5325015    3.4511245     23.06531    23.103782    23.066816    23.025332 0.0093918435           60 
   57500    1.0233747    1.5350567    3.4510168    23.101231    23.065193    23.127932    23.110568 -0.023260183           60 
   57600    1.0243271    1.5364853    3.4493152     23.09654    23.069178    23.108834    23.111607  0.023231659           60 
   57700    1.0202835    1.5304199    3.4498092    23.097082    23.107362    23.086099    23.097785 -0.038323972           60 
   57800    1.0179682     1.526947    3.4480542    23.063393    23.106662    23.040239    23.043278 0.0082215221           60 
   57900    1.0225152    1.5337675    3.4478641    23.072379    23.062697    23.090996    23.063444 -0.00051748953           60 
   58000    1.0208318    1.5312424    3.4472365    23.107697    23.138548    23.089774    23.094768 -0.037116641           60 
   58100     1.020215    1.5303171    3.4506463    23.093892    23.098128    23.139274    23.044274  0.016295138           60 
   58200    1.0215432    1.5323095    3.4522039    23.060065    23.063717    23.045669    23.070811 -0.026404586           60 
   58300     1.022642    1.5339577    3.4492372    23.071002    23.069186    23.090209    23.053612 0.0083564814           60 
   58400    1.0215942     1.532386     3.446451    23.071438    23.091161    23.080067    23.043086    0.0136176           60 
   58500    1.0219832    1.5329695    3.4488925    23.095962    23.113119    23.098095    23.076672 0.00031302965           60 
   58600     1.023287    1.5349251      3.44649    23.077159    23.108576     23.07626     23.04664 -0.00084856351           60 
   58700    1.0214773    1.5322106    3.4493457    23.093839    23.124867    23.055587    23.101063 0.0039274858           60 
   58800     1.022527    1.5337852    3.4480379     23.05842    23.075208    23.043855    23.056197  0.016730531           60 
   58900     1.021569    1.5323481    3.4500247     23.09613    23.101035    23.118138    23.069217  0.014598745           60 
   59000    1.0210067    1.5315047    3.4544436    23.070903    23.074779     23.08286    23.055071  0.031414521           60 
   59100    1.0257133    1.5385646    3.4469825    23.090458    23.093535    23.093793    23.084048 -0.0032700389           60 
[...]
  865400    1.0218951    1.5328373    3.4103006    22.881642    22.571608    23.046351    23.026967  0.024409082          111 
  865500    1.0222071    1.5333054    3.4123666     22.92211    22.628924    23.087758    23.049648  0.013474219          111 
  865600    1.0215964    1.5323892    3.4056557    22.907405    22.606484    23.065211    23.050519  -0.03596592          111 
  865700    1.0217027    1.5325487    3.4092892    22.890265    22.582917    23.030972    23.056907  0.029571839          111 
  865800    1.0215557    1.5323283    3.4100006    22.882379    22.597967    23.052472    22.996697 -0.020321143          111 
  865900    1.0188572    1.5282805    3.4095278    22.828911    22.520745    22.970072    22.995915 -0.0020277631          111 
  866000    1.0237767    1.5356597    3.4124864    22.899156    22.641946    23.041568    23.013953 0.0061788824          111 
  866100    1.0222808    1.5334158    3.4079464    22.923233      22.6288    23.087499    23.053398 0.0024820704          111 
  866200     1.020564    1.5308407    3.4103963    22.883896    22.623211    23.036679    22.991797 -0.015945273          111 
  866300    1.0231349     1.534697    3.4107488    22.883688    22.597629    23.022547    23.030887 -0.028497745          111 
  866400    1.0209502      1.53142    3.4090044    22.902159    22.634185    23.073728    22.998566 -0.00084411644          111 
  866500    1.0236618    1.5354874    3.4091883    22.912959    22.666045    23.028855    23.043977  0.029513969          111 
  866600    1.0257163    1.5385691    3.4098583    22.922252    22.652405    23.058631    23.055721 -0.016582188          111 
  866700    1.0226117    1.5339122    3.4080879    22.896092    22.609534    23.048729    23.030013  0.033617543          111 
  866800    1.0229286    1.5343876    3.4083048    22.897477    22.612865    23.032269    23.047295 -0.031285478          111 
  866900    1.0219897    1.5329793    3.4089322    22.890959    22.592973    23.058256    23.021648 -0.015711229          111 
  867000    1.0246203    1.5369251    3.4082925    22.876501    22.610931    23.004434    23.014136  0.038379644          111 
  867100    1.0209648    1.5314419    3.4083736    22.865518     22.54388    23.025588    23.027086 0.0095814023          111 
  867200    1.0197125    1.5295634    3.4073373    22.891726    22.564652    23.089411    23.021113 -0.015386047          111 
  867300     1.023398    1.5350916    3.4060049     22.91234     22.69607    23.004224    23.036725  0.014471319          111 
  867400    1.0182587    1.5273827    3.4116312    22.904492    22.610607    23.033002    23.069866 0.0096647767          111 
  867500    1.0192393    1.5288537    3.4111456    22.849157    22.572011    22.989273    22.986186 -0.010791605          111 
  867600    1.0211089    1.5316581    3.4106019    22.912089    22.627794    23.041347    23.067127 -0.025594999          111 
  867700    1.0243413    1.5365066    3.4098084    22.882136    22.579862    23.058654    23.007893 0.0082088716          111 
  867800    1.0227614    1.5341367    3.4101401    22.905808    22.615031    23.068653    23.033739  -0.03060415          111 
  867900    1.0218825    1.5328184    3.4105405    22.889363    22.613307    23.049851    23.004931  0.034797494          111 
  868000    1.0225038    1.5337503    3.4065052    22.926693    22.667098    23.065245    23.047737 -0.033036448          111 
  868100    1.0226311    1.5339414    3.4079677    22.891867    22.589895    23.041952    23.043755 -0.0087349132          111 
  868200     1.022269    1.5333982    3.4090516    22.963498    22.704187     23.08954    23.096768  0.022388126          111 
  868300    1.0225157    1.5337682    3.4131393    22.896233    22.571536    23.054494    23.062669  0.016639331          111 
  868400    1.0220293    1.5330386    3.4121934    22.897067    22.642813    23.071129    22.977258 0.0047968299          111 
  868500    1.0213699    1.5320495    3.4085499    22.929504    22.655032    23.114726    23.018753  0.028158267          111 
  868600    1.0242662    1.5363939    3.4101446    22.929378    22.634566    23.126677     23.02689  0.032994457          111 
  868700    1.0239276     1.535886    3.4104184    22.934418    22.701316    23.071281    23.030657  0.025684106          111 
  868800    1.0216969    1.5325401    3.4106962    22.965181     22.71464    23.103305    23.077599 -0.0051213231          111 
  868900    1.0197843    1.5296711    3.4081565    22.866998    22.618612    23.007799    22.974584 -0.020415173          111 
  869000    1.0174067    1.5261047    3.4067514    22.935441    22.713297    23.066046     23.02698  0.017569667          111 
  869100    1.0195401    1.5293048    3.4062029     22.92737    22.686893    23.059524    23.035692 -0.017029546          111 
  869200     1.021753    1.5326241    3.4107611    22.930602    22.667134    23.069278    23.055394    0.0107103          111 
  869300    1.0236694    1.5354987    3.4102346    22.933356    22.655076    23.071608    23.073383 -0.054281842          111 
  869400    1.0197037    1.5295502    3.4108114    22.898901    22.641968    23.023871    23.030865 -0.031327177          111 
  869500    1.0194742     1.529206    3.4086007    22.864566    22.605889    23.000065    22.987743 -0.029164075          111 
  869600    1.0224877    1.5337263    3.4096095     22.92293    22.648311    23.051137    23.069342 -0.010485055          111 
  869700    1.0198365    1.5297495    3.4127025    22.879109    22.643952    22.990386    23.002988  0.019135877          111 
  869800    1.0238915    1.5358319    3.4112323    22.927769    22.651126    23.081578    23.050604 -0.022886186          111 
  869900     1.023349    1.5350182    3.4128224    22.958105    22.732839    23.067604    23.073871  0.011169629          111 
  870000     1.020249    1.5303681    3.4087801    22.922795    22.675786    23.052517    23.040082  0.049899883          114 
  870100    1.0210952    1.5316375    3.4136096    22.839505    22.535509    23.000969    22.982036 0.0026041516          114 
  870200    1.0212514    1.5318718     3.412616    22.895457     22.54085    23.104368    23.041155  0.027200927          114 
  870300    1.0228451    1.5342624    3.4119958    22.891261    22.571481    23.051645    23.050657 0.0075779245          114 
  870400    1.0191693    1.5287487     3.409534    22.908486    22.605514    23.072516    23.047429 -0.014582968          114 
  870500    1.0221799    1.5332645    3.4102154    22.921978    22.617516    23.100563    23.047855  0.022086998          114 
  870600    1.0243921    1.5365828    3.4086297    22.954556     22.65315    23.123122    23.087396  0.017288634          114 
  870700    1.0214875    1.5322259    3.4126444    22.915905    22.601088    23.075661    23.070966 0.0022472375          114 
  870800    1.0216906    1.5325305    3.4094355    22.921077    22.609335    23.095581    23.058315 -0.013746683          114 
  870900    1.0200848    1.5301219    3.4128118    22.902425    22.561145    23.082916    23.063215 0.0041557496          114 
  871000    1.0223802     1.533565    3.4098432    22.952297    22.646993    23.122467    23.087433 0.0023440173          114 
  871100    1.0207333    1.5310946    3.4118777    22.919827    22.656628    23.070921    23.031932  0.003155341          114 
  871200    1.0210118    1.5315123    3.4117306    22.906101    22.620848    23.040032    23.057423 -0.030320188          114 
  871300    1.0214161    1.5321188    3.4132959    22.901056    22.581509    23.056079    23.065579 -0.0063353264          114 
  871400    1.0224205    1.5336254    3.4147062     22.92974    22.639116    23.062942    23.087163 -0.0057696365          114 
  871500    1.0208471    1.5312653    3.4160079     22.90871    22.630164    23.043706    23.052261 0.0058449274          114 
  871600    1.0250435    1.5375599    3.4138738    22.932719    22.632963    23.086895    23.078298 0.0092658503          114 
  871700    1.0219818    1.5329674    3.4141723    22.919426    22.646824    23.066581    23.044872 -0.014156568          114 
  871800    1.0223063    1.5334541    3.4124283    22.914166    22.589056    23.071839    23.081604  0.034067444          114 
  871900    1.0234207    1.5351257    3.4140918     22.90916    22.608822    23.077215    23.041442 -0.0058421733          114 
  872000    1.0241564    1.5362292    3.4156872    22.956281    22.659377    23.129465        23.08 -0.038597142          114 
  872100    1.0213211    1.5319763    3.4138742    22.890331    22.556489    23.101416     23.01309 -0.0083487923          114 
  872200    1.0185814    1.5278667    3.4175891    22.892632    22.618596    23.070026    22.989276 -0.0042793377          114 
  872300    1.0210668    1.5315949    3.4151283    22.907708    22.625733    23.066881     23.03051  0.035640897          114 
  872400    1.0226317    1.5339422    3.4138262     22.91422     22.68299    23.012275    23.047393 -0.010240435          114 
  872500    1.0199193    1.5298736    3.4144318    22.875007    22.646064    22.987844    22.991112 -0.028520909          114 
  872600    1.0260628    1.5390889    3.4111761    22.900153    22.634613    23.059861    23.005984 -0.024727464          114 
  872700    1.0211748    1.5317568    3.4130719    22.945056     22.68085     23.06641    23.087909 -0.023324984          114 
  872800    1.0212884    1.5319273    3.4101184     22.96119    22.690171    23.114768     23.07863 -0.0043798087          114 
  872900    1.0231628    1.5347389    3.4150058    22.896059      22.6193    23.049317     23.01956  0.011394567          114 
  873000    1.0202003    1.5302951     3.411609     22.83526    22.550091    22.983425    22.972265  0.026844261          114 
  873100    1.0264771    1.5397103    3.4113131    22.915131    22.640964    23.070126    23.034305 -0.0011159093          114 
  873200     1.021085    1.5316221    3.4114512    22.917961    22.656636    23.071274    23.025973 0.0081735596          114 
  873300    1.0206328    1.5309439    3.4109738     22.87875    22.589495    23.073643    22.973111  0.016449663          114 
  873400    1.0208497    1.5312692    3.4142834    22.864933    22.611101    23.051167    22.932532 0.0060925336          114 
  873500    1.0226771    1.5340104     3.409404    22.907275    22.633863    23.064736    23.023225  0.012040578          114 
  873600    1.0212292    1.5318385    3.4107529    22.881007    22.612868    23.022589    23.007566 -0.039026325          114 
  873700    1.0214923    1.5322331    3.4101584    22.914865     22.61665    23.077126     23.05082 -0.00086098718          114 
  873800    1.0217332    1.5325945    3.4124337    22.856316    22.592988    23.042689     22.93327 0.0072466316          114 
  873900     1.021434    1.5321457    3.4104887    22.903161    22.615455    23.059725    23.034304 -0.0085705804          114 
  874000    1.0234652    1.5351924    3.4101811    22.902939    22.623274    23.033143    23.052401 -0.020976311          114 
  874100    1.0197575     1.529631    3.4123497    22.951477    22.691289    23.089723     23.07342  0.041192439          114 
  874200    1.0229238    1.5343803    3.4079743    22.895937    22.665818    23.030368    22.991626  -0.02682746          114 
  874300    1.0220881    1.5331268    3.4142285     22.90773    22.639218    23.058042    23.025929 0.0043793062          114 
  874400    1.0221176    1.5331711    3.4153665    22.935631    22.655284    23.045901    23.105708  0.015247149          114 
  874500    1.0238059    1.5357036    3.4117186    22.944093    22.659623    23.122971    23.049684  0.014347102          114 
  874600    1.0221625    1.5332385    3.4117797    22.931057    22.661597    23.098837    23.032736 0.00068072769          114 
  874700     1.021336    1.5319986    3.4141433    22.889809    22.603522    23.016825    23.049081  0.037658851          114 
  874800    1.0225036      1.53375    3.4107921    22.936158    22.664469    23.081865    23.062138  0.023297915          114 
  874900    1.0221303    1.5331901    3.4109901     22.89975    22.634373    23.055974    23.008904 -0.040769745          114 
  875000    1.0246074    1.5369058    3.4119464    22.969503    22.688987    23.122069    23.097452  0.032101183          117 
  875100    1.0220723    1.5331031    3.4146363    22.868765    22.539247    23.056007    23.011041 0.0033498843          117 
  875200    1.0213232    1.5319794    3.4172616     22.91189    22.566788    23.071114    23.097769 -0.015985102          117 
  875300    1.0224496    1.5336691    3.4170305    22.880178    22.542644     23.06149      23.0364 0.0082824317          117 
  875400    1.0229572    1.5344305    3.4168257    22.880777    22.566105    23.048662    23.027565 -0.0044693664          117 
  875500    1.0222135    1.5333149     3.416653    22.880346    22.568044    23.032794      23.0402 -0.0030721001          117 
  875600    1.0209653    1.5314427    3.4142543    22.857931    22.532108    22.988474    23.053212 -0.0030190866          117 
  875700    1.0217483    1.5326171    3.4132351    22.890935    22.542191    23.031177    23.099436  0.016394705          117 
  875800    1.0203317    1.5304922    3.4150908    22.874175    22.531036     23.03288     23.05861 -0.004136476          117 
  875900    1.0246236    1.5369301    3.4163279    22.932809    22.596866    23.135883    23.065677  0.011656448          117 
  876000    1.0207405    1.5311054     3.412291     22.88052    22.565569    23.046489    23.029501 0.0032301257          117 
  876100     1.019436    1.5291486    3.4132164    22.890912    22.576883    23.049216    23.046638 -0.011962706          117 
  876200    1.0236698    1.5354993     3.415819    22.903863    22.588092    23.057667     23.06583 -0.037429344          117 
  876300     1.021793    1.5326842    3.4139285    22.929799    22.629543    23.122199    23.037654 -0.013816064          117 
  876400    1.0221362     1.533199    3.4138606    22.922183    22.589698    23.084316    23.092535 -0.019982181          117 
  876500    1.0205096    1.5307591    3.4147114    22.926264    22.642081    23.084945    23.051766 -0.0027629582          117 
  876600    1.0207374    1.5311007    3.4175914    22.895904     22.58458    23.049869    23.053262 -0.0092447993          117 
  876700    1.0224696     1.533699     3.411386    22.894714    22.575109    23.083644    23.025388 -0.0081802246          117 
  876800    1.0221285    1.5331874     3.413354    22.904012    22.579339    23.083958    23.048739 -0.032987241          117 
  876900    1.0254185    1.5381224    3.4134077    22.877788    22.558563    23.032706    23.042096  0.037853688          117 
  877000    1.0210475     1.531566    3.4137782    22.890333    22.583671    23.066536    23.020793 0.0030512887          117 
  877100    1.0217391    1.5326033    3.4180205    22.897077    22.593732    23.073752    23.023748  0.015124763          117 
  877200    1.0235314    1.5352917     3.415165     22.88478    22.586441    23.033015    23.034883 -0.025375964          117 
  877300    1.0202748    1.5304069    3.4126978    22.949508    22.645407    23.122846     23.08027  0.023655913          117 
  877400    1.0258908    1.5388308    3.4131306    22.915683    22.589439     23.09089     23.06672 0.0053251541          117 
  877500    1.0223731    1.5335543    3.4132328    22.880755    22.604513    23.051245    22.986506 0.0057295089          117 
  877600    1.0229674    1.5344458    3.4093265    22.930192    22.662633    23.066699    23.061245  -0.02548428          117 
  877700    1.0202013    1.5302967    3.4158574    22.911535    22.576501     23.08723    23.070874 -0.0066701497          117 
  877800    1.0226551    1.5339773    3.4114585    22.969006    22.687791    23.094009    23.125218 -0.0016766397          117 
  877900    1.0240352    1.5360475    3.4116693    22.928051    22.667905    23.042817    23.073432 -0.014126979          117 
  878000    1.0203447    1.5305118    3.4130818    22.898799    22.615949    23.059146    23.021303  0.010612243          117 
  878100    1.0190569      1.52858    3.4172969    22.934308    22.641413    23.081953    23.079559   0.01931512          117 
  878200    1.0192528    1.5288739    3.4157565    22.911863    22.609461    23.088333    23.037797 -0.0079758123          117 
  878300    1.0195528     1.529324    3.4154543    22.914449    22.623752    23.093994      23.0256 -0.0017434086          117 
  878400    1.0208325    1.5312434    3.4123831    22.901645    22.599893    23.047717    23.057323 -0.024800017          117 
  878500    1.0216088    1.5324078    3.4099251    22.907318    22.622844     23.06512    23.033989 -0.014699936          117 
  878600    1.0224447    1.5336617     3.416932    22.912923    22.612425    23.086133    23.040209  0.058152361          117 
  878700     1.022486    1.5337237    3.4173105    22.915552    22.665831    23.081637    22.999189  -0.01122761          117 
  878800    1.0220868    1.5331248    3.4132529     22.92232    22.668483    23.081183    23.017293 -0.0011554133          117 
  878900    1.0207013    1.5310467    3.4136347    22.925211     22.64678    23.044244     23.08461 -0.016904929          117 
  879000    1.0223199    1.5334745    3.4151764    22.906364    22.612964    23.069189    23.036939  0.030318241          117 
  879100    1.0219673    1.5329457    3.4130962    22.887993    22.592902    23.074811    22.996265  0.046952228          117 
  879200    1.0217109     1.532561    3.4108836    22.921272    22.656347    23.040194    23.067276 -0.014805322          117 
  879300    1.0209745    1.5314564    3.4155915    22.920457    22.600357    23.076025     23.08499 0.0013439937          117 
  879400    1.0224157    1.5336182    3.4141858    22.923444    22.640696    23.080901    23.048736  0.011909402          117 
  879500    1.0247978    1.5371914    3.4141947    22.931165    22.679802    23.074032    23.039661 -0.022457158          117 
  879600    1.0253997    1.5380943    3.4143523    22.874901     22.61872    23.008522     22.99746  0.015422527          117 
  879700    1.0225884    1.5338773    3.4109725    22.931084    22.653765    23.094007    23.045479 -0.030880014          117 
  879800     1.019315    1.5289672    3.4161516    22.893664    22.632994      23.0361    23.011898 -0.0033516901          117 
  879900      1.02068    1.5310147    3.4110482    22.963709    22.691526    23.109811     23.08979  0.017696417          117 
  880000    1.0193402     1.529005    3.4120021    22.892145     22.59284    23.063539    23.020057 0.00082569091          120 
Loop time of 6368.25 on 16 procs for 100000 steps with 288000 atoms

Performance: 40701.919 tau/day, 15.703 timesteps/s
98.7% CPU use with 16 MPI tasks x 1 OpenMP threads

MPI task timing breakdown:
Section |  min time  |  avg time  |  max time  |%varavg| %total
---------------------------------------------------------------
Pair    | 2599.2     | 2855.7     | 3206.6     | 345.3 | 44.84
Bond    | 15.289     | 37.575     | 72.935     | 290.7 |  0.59
Neigh   | 2418.8     | 2420.7     | 2423.5     |   2.3 | 38.01
Comm    | 305.88     | 662.2      | 942.44     | 828.4 | 10.40
Output  | 2.8952     | 3.1462     | 3.9708     |  22.2 |  0.05
Modify  | 336.96     | 367.5      | 451.67     | 248.7 |  5.77
Other   |            | 21.34      |            |       |  0.34

Nlocal:    18000 ave 18426 max 17772 min
Histogram: 3 3 2 2 1 2 1 1 0 1
Nghost:    15514.5 ave 15695 max 15419 min
Histogram: 2 5 1 3 0 3 0 0 0 2
Neighs:    52722.9 ave 142012 max 598 min
Histogram: 4 3 1 1 1 2 1 1 1 1

Total # of neighbors = 843566
Ave neighs/atom = 2.92905
Ave special neighs/atom = 0.391667
Neighbor list builds = 20000
Dangerous builds = 20000
undump	myDump-stretch

Total wall time: 13:22:27
