LAMMPS (16 Mar 2018)
  using 1 OpenMP thread(s) per MPI task
# Dissipative Particle Dynamics and Worm-like Chain model
# Silk assembly model, Greta Gronau 2011
# First equilibration

units		lj

# file name
variable	name index spider_A1B1A1B1A1B1A1B1A1B1A1B1A1B1A1B1A1B1A1B1A1B1A1B1x400_silkworm_A1B1x0

# random number seed
variable	seed equal 11111

# shearrate
variable	shearrate equal 0.01

# temperature
variable	T equal 1

# DPD parameters
variable	cutoff equal 1.0
variable	gamma equal 4.5

# repulsive interaction parameters
variable	maxrepWW equal 25.0
variable	maxrepAA equal 25.0
variable	maxrepGG equal 25.0
variable	maxrepAW equal 40.0
variable	maxrepGW equal 26.0
variable	maxrepAG equal 27.0
variable	EHB equal 3.53
variable	hEHB equal 3.53		# in case different hEHB is used for 'a' between silkworm and spider

# number of timesteps
variable	dumpfreq equal 15000
variable	dumpfreq2 equal 10000 # dump frequency for stretch simulation
variable	tot_equil_step equal 210000
variable	tot_shear_step equal 420000
variable	tot_equilafter_step equal 150000
variable	tot_stretch_step equal 100000

variable	nfreq equal 5000
variable	nevery equal 1
variable	nrepeat equal ${nfreq}*0.5
variable	nrepeat equal 5000*0.5

timestep	0.03

atom_style	bond
comm_modify mode single vel yes

# INPUT and OUTPUT
read_data	${name}.data
read_data	spider_A1B1A1B1A1B1A1B1A1B1A1B1A1B1A1B1A1B1A1B1A1B1A1B1x400_silkworm_A1B1x0.data
  triclinic box = (-30 -20 -20) to (30 20 20) with tilt (0 0 0)
  4 by 2 by 2 MPI processor grid
  reading atoms ...
  288000 atoms
  scanning bonds ...
  1 = max bonds/atom
  reading bonds ...
  57200 bonds
  2 = max # of 1-2 neighbors
  2 = max # of 1-3 neighbors
  4 = max # of 1-4 neighbors
  6 = max # of special neighbors

thermo			100
thermo_style	custom step temp ke pe press pxx pyy pzz pxy lx

############# force field setup #########################
pair_style	hybrid/overlay soft 1.0 dpd ${T} ${cutoff} ${seed}
pair_style	hybrid/overlay soft 1.0 dpd 1 ${cutoff} ${seed}
pair_style	hybrid/overlay soft 1.0 dpd 1 1 ${seed}
pair_style	hybrid/overlay soft 1.0 dpd 1 1 11111
pair_coeff	* * dpd 25.0 ${gamma} 1.0
pair_coeff	* * dpd 25.0 4.5 1.0
pair_coeff	1 1 soft ${EHB} 1.0
pair_coeff	1 1 soft 3.53 1.0
pair_coeff	4 4 soft ${EHB} 1.0
pair_coeff	4 4 soft 3.53 1.0
pair_coeff	1 4 soft ${hEHB} 1.0
pair_coeff	1 4 soft 3.53 1.0
pair_coeff	1 1 dpd ${maxrepAA} ${gamma} 1.0
pair_coeff	1 1 dpd 25 ${gamma} 1.0
pair_coeff	1 1 dpd 25 4.5 1.0
pair_coeff	1 2 dpd ${maxrepAG} ${gamma} 1.0
pair_coeff	1 2 dpd 27 ${gamma} 1.0
pair_coeff	1 2 dpd 27 4.5 1.0
pair_coeff	2 2 dpd ${maxrepGG} ${gamma} 1.0
pair_coeff	2 2 dpd 25 ${gamma} 1.0
pair_coeff	2 2 dpd 25 4.5 1.0
pair_coeff	1 3 dpd ${maxrepAW} ${gamma} 1.0
pair_coeff	1 3 dpd 40 ${gamma} 1.0
pair_coeff	1 3 dpd 40 4.5 1.0
pair_coeff	2 3 dpd ${maxrepGW} ${gamma} 1.0
pair_coeff	2 3 dpd 26 ${gamma} 1.0
pair_coeff	2 3 dpd 26 4.5 1.0
pair_coeff	3 3 dpd ${maxrepWW} ${gamma} 1.0
pair_coeff	3 3 dpd 25 ${gamma} 1.0
pair_coeff	3 3 dpd 25 4.5 1.0
pair_coeff	3 4 dpd 30.0 4.5 1.0
pair_coeff	3 5 dpd ${maxrepGW} 4.5 1.0
pair_coeff	3 5 dpd 26 4.5 1.0
pair_coeff	4 5 dpd ${maxrepAG} 4.5 1.0
pair_coeff	4 5 dpd 27 4.5 1.0

### bond setup ###
bond_style	harmonic
bond_coeff	1 118.5 1.025
bond_coeff	2 118.5 0.778
special_bonds	lj 1.0 1.0 1.0 coul 1.0 1.0 1.0  # LAMMPS code changed so that DPD takes coul arguments
  2 = max # of 1-2 neighbors
  6 = max # of special neighbors

### neighbor setup
neighbor		1.0 bin
neigh_modify	delay 5

group	chains type 1 2 4 5
57600 atoms in group chains
group	water type 3
230400 atoms in group water

#timestep 0.04
#fix 1 all nve/limit 0.01
#run 10000
#unfix 1

reset_timestep 0
#timestep 0.04
### Equilibration Run ###
velocity	all create ${T} ${seed} dist gaussian
velocity	all create 1 ${seed} dist gaussian
velocity	all create 1 11111 dist gaussian
dump		myDump-equil chains dcd ${dumpfreq} equil_${seed}.dcd
dump		myDump-equil chains dcd 15000 equil_${seed}.dcd
dump		myDump-equil chains dcd 15000 equil_11111.dcd
fix			1 all nve
run			${tot_equil_step}
run			210000
Neighbor list info ...
  update every 1 steps, delay 5 steps, check yes
  max neighbors/atom: 2000, page size: 100000
  master list distance cutoff = 2
  ghost atom cutoff = 2
  binsize = 1, bins = 60 40 40
  2 neighbor lists, perpetual/occasional/extra = 2 0 0
  (1) pair soft, perpetual, skip from (2)
      attributes: half, newton on
      pair build: skip
      stencil: none
      bin: none
  (2) pair dpd, perpetual
      attributes: half, newton on
      pair build: half/bin/newton/tri
      stencil: half/bin/3d/newton/tri
      bin: standard
Per MPI rank memory allocation (min/avg/max) = 14.83 | 16.82 | 19.64 Mbytes
Step Temp KinEng PotEng Press Pxx Pyy Pzz Pxy Lx 
       0            1    1.4999948    9.6344959    26.188242    27.274353    27.229088    24.061285 -0.019618336           60 
     100    1.1408505    1.7112698    4.1288544    24.184212    24.212311    24.225711    24.114613 -0.032752606           60 
     200    1.0547782    1.5821619    3.9022003    23.786289    23.793609    23.777839    23.787418 -0.0084975175           60 
     300     1.039239    1.5588531    3.8173195    23.687761    23.739118    23.716434     23.60773 -0.031279694           60 
     400    1.0309434    1.5464098    3.7737597    23.555488    23.622278    23.526979    23.517206 0.00017523503           60 
     500    1.0284485    1.5426674    3.7355467    23.486792    23.489232    23.510166    23.460978 -0.036522373           60 
     600    1.0286314    1.5429417    3.7093139    23.509206    23.517038    23.512305    23.498275 -0.019675054           60 
     700     1.026653    1.5399742     3.688971    23.466084    23.482648    23.503568    23.412035 -0.012583076           60 
     800    1.0216717    1.5325023    3.6743923    23.476634    23.460978    23.499512    23.469411 0.0094920828           60 
     900    1.0257698    1.5386494    3.6580072    23.381273    23.377127    23.432769    23.333925 -0.039688307           60 
    1000    1.0242671    1.5363953    3.6455597    23.364643      23.3679    23.392565    23.333465 -0.040270213           60 
    1100    1.0226519    1.5339725    3.6342639    23.367241    23.415575    23.367208    23.318941 -0.023470358           60 
    1200    1.0209766    1.5314596     3.626472    23.321292    23.298621    23.365589    23.299666 -0.0011744758           60 
    1300    1.0240004    1.5359952    3.6180076      23.3225    23.279265    23.373821    23.314414 -0.0047068131           60 
    1400    1.0230583    1.5345821    3.6149351    23.298162    23.326916    23.309262    23.258308   0.01822815           60 
    1500    1.0229931    1.5344844    3.6131721    23.301161    23.288091     23.35738    23.258012  0.027153446           60 
    1600    1.0247882     1.537177    3.6005669    23.295087    23.328828    23.289605    23.266826 -0.031408088           60 
    1700    1.0239188    1.5358729    3.5945014    23.288351      23.2674    23.310413     23.28724 -0.015557503           60 
    1800    1.0214899    1.5322296    3.5929992     23.25227    23.285106    23.285079    23.186624  0.012810121           60 
    1900    1.0201209     1.530176    3.5904665    23.309779    23.280901    23.354781    23.293654 -0.035475081           60 
    2000    1.0233968    1.5350899    3.5814952    23.206743    23.256545    23.205251    23.158433 0.0071276086           60 
    2100    1.0248714    1.5373017     3.574365    23.239182    23.221242    23.258534    23.237769  0.012534926           60 
    2200    1.0225988    1.5338929    3.5736214    23.259583    23.249654    23.299752    23.229344 0.0058069566           60 
    2300    1.0187877    1.5281762    3.5704811     23.21298     23.20924    23.246092    23.183606 0.0082399178           60 
    2400    1.0259304    1.5388903    3.5651995    23.241296     23.25931    23.236387    23.228192    0.0107921           60 
    2500    1.0207852    1.5311724    3.5656762    23.192537    23.212214    23.219093    23.146303 0.0086561685           60 
    2600    1.0199568    1.5299298    3.5597434    23.228333    23.214676    23.279759    23.190565 0.0092490102           60 
    2700    1.0210313    1.5315416     3.558884    23.134313    23.159091    23.144461    23.099386  0.011451677           60 
    2800    1.0219765    1.5329594    3.5574664    23.180392    23.222878     23.16148    23.156817 -0.011770917           60 
    2900    1.0205133    1.5307646    3.5515583     23.20626    23.234267    23.233704    23.150809  0.016000936           60 
    3000    1.0225548    1.5338268    3.5546894     23.23583    23.236768    23.272915    23.197808 0.0098186021           60 
    3100    1.0238634    1.5357898    3.5477563    23.184909    23.232406    23.148219    23.174102 -0.024269421           60 
    3200    1.0192965    1.5289395    3.5493883    23.183465    23.161428    23.182696    23.206271 -0.015122546           60 
    3300    1.0205652    1.5308425    3.5428965    23.171708    23.183791    23.196585     23.13475 0.00097766664           60 
    3400    1.0215254    1.5322828    3.5422048    23.182935    23.177222    23.202867    23.168716 0.0021123076           60 
    3500    1.0217333    1.5325947    3.5408801    23.207178    23.184855    23.232278    23.204402  0.010835368           60 
    3600    1.0207759    1.5311586    3.5384987     23.13162    23.146832    23.179452    23.068575 -0.020907331           60 
    3700    1.0252337    1.5378451    3.5388521    23.183448    23.175315    23.237053    23.137977 -0.006632061           60 
    3800    1.0239662    1.5359439    3.5376245    23.209082    23.149192    23.260703    23.217351 -0.045429195           60 
    3900    1.0229789     1.534463    3.5354982    23.159038    23.225939    23.153668    23.097506  0.016611504           60 
    4000    1.0217438    1.5326104    3.5336784    23.160062    23.156097    23.173116    23.150972  0.015146418           60 
    4100    1.0213888    1.5320778     3.532776     23.18037    23.189704    23.191881    23.159525  0.033181302           60 
    4200    1.0209473    1.5314156    3.5344755    23.161633    23.135764     23.20076    23.148374  0.016672386           60 
    4300    1.0216801    1.5325149    3.5297326    23.176401    23.161122    23.209327    23.158754 -0.023096005           60 
    4400    1.0203747    1.5305568    3.5290538      23.1649    23.164424     23.17191    23.158367 -0.054122412           60 
    4500    1.0213108    1.5319609    3.5264908    23.152336    23.167624     23.14373    23.145656 -0.0050089292           60 
    4600    1.0204815    1.5307169    3.5287903    23.124758    23.163439    23.097058    23.113778 -0.035744906           60 
    4700     1.022712    1.5340627    3.5253864    23.143887    23.099434    23.193022    23.139205 -0.011750608           60 
    4800    1.0221207    1.5331757    3.5234145    23.143513    23.149045    23.163104    23.118391 -0.015845113           60 
    4900    1.0192317    1.5288423    3.5206699    23.158361    23.152281    23.131776    23.191026 0.00072366037           60 
    5000    1.0206143    1.5309161    3.5218466    23.141246    23.149583    23.167374     23.10678 -0.027333455           60 
    5100    1.0249995    1.5374938    3.5184992    23.152836    23.101808    23.214159    23.142542 -0.0056184738           60 
    5200    1.0201109    1.5301611    3.5212473    23.169545    23.156793    23.152149    23.199693 0.0077916015           60 
    5300    1.0220157    1.5330183    3.5198406    23.156281    23.225086    23.134461    23.109295 -0.0035302919           60 
    5400    1.0199688    1.5299479    3.5196723    23.111633    23.118252    23.108784    23.107865 0.0052464805           60 
    5500    1.0226495     1.533969    3.5178052    23.175505    23.173993    23.225893    23.126629 -0.026179959           60 
    5600    1.0220415    1.5330569    3.5186546    23.148795    23.145663    23.122039    23.178683 0.00010885374           60 
    5700    1.0238062    1.5357039    3.5165735    23.152341    23.158474    23.175886    23.122663  0.025439595           60 
    5800    1.0205808    1.5308659     3.511107    23.106779    23.128223    23.140098    23.052015 -0.027139248           60 
    5900    1.0212884    1.5319273    3.5131219    23.140729    23.109694    23.159288    23.153205 -0.013232016           60 
    6000    1.0193162     1.528969    3.5153728    23.116722    23.137012    23.109044     23.10411 0.0026119384           60 
    6100    1.0210082     1.531507     3.509606    23.134819    23.130274     23.15324    23.120944  0.013867434           60 
    6200    1.0217209     1.532576    3.5114702    23.095103    23.088328    23.127883    23.069099 -0.030218317           60 
    6300    1.0222686    1.5333976    3.5110792    23.136335    23.126522     23.17634    23.106142 0.00018455906           60 
    6400    1.0228137    1.5342152    3.5110373    23.118472    23.128062    23.109976    23.117379  0.021826099           60 
    6500    1.0185262     1.527784    3.5109994    23.107912    23.052116    23.175493    23.096126 -0.010371776           60 
    6600    1.0238644    1.5357912    3.5065208    23.117643    23.057436    23.127514     23.16798 -0.017211639           60 
    6700    1.0193443    1.5290111    3.5056584    23.140216    23.163179    23.151268      23.1062 0.0016577455           60 
    6800    1.0234891    1.5352283    3.5049087    23.145959    23.140129    23.145454    23.152296 -0.00071696022           60 
    6900    1.0227467    1.5341147    3.5042799    23.063251    23.049871    23.096055    23.043827 0.00097632898           60 
    7000    1.0235683     1.535347    3.5049911    23.119291    23.119867    23.146339    23.091667 -0.0069473073           60 
    7100    1.0204248    1.5306319    3.5055131    23.137187    23.185448    23.118276    23.107838  0.039375455           60 
    7200    1.0206656    1.5309931    3.5036124    23.122876    23.086889    23.146381    23.135357 -0.022612133           60 
    7300    1.0221954    1.5332878    3.5041073    23.077756    23.092034    23.122309    23.018926  0.011714714           60 
    7400    1.0207574    1.5311308    3.5008921    23.110596    23.095127    23.137793    23.098869 -0.0048742716           60 
    7500    1.0206805    1.5310154     3.501846    23.094891    23.078608      23.1208    23.085266  0.017826113           60 
    7600    1.0208508    1.5312709     3.503161    23.100537    23.065169    23.117225    23.119218  0.044120545           60 
    7700    1.0217388    1.5326029    3.5026503    23.116892    23.159249    23.098577     23.09285 0.00046405544           60 
    7800    1.0205508    1.5308209    3.4993855    23.112415    23.136286    23.089544    23.111417 -0.027022627           60 
    7900    1.0211166    1.5316696    3.5011171     23.09845    23.068804     23.12831    23.098237 -0.022965173           60 
    8000    1.0204895    1.5307289    3.4987386    23.058705    23.103638    22.979946    23.092531  0.038473776           60 
    8100    1.0222909     1.533431    3.4948744    23.131775    23.147301    23.142855    23.105167  0.024309884           60 
    8200    1.0233776    1.5350611    3.4982748    23.132901    23.149864    23.136148     23.11269 -0.024731312           60 
    8300    1.0220517    1.5330722    3.4952123    23.103471     23.09433    23.134031    23.082052 -0.025773551           60 
    8400    1.0206806    1.5310156    3.4979445    23.102281    23.100706    23.098879    23.107257 0.0022045556           60 
    8500    1.0206028    1.5308989    3.4940677    23.079356     23.10766    23.026546    23.103862 -0.0035687265           60 
    8600     1.023054    1.5345757    3.4970811    23.126212    23.140322    23.128074     23.11024 -0.0017304244           60 
    8700    1.0222419    1.5333575     3.497406    23.080998    23.150968    23.088091    23.003934 0.0096704979           60 
    8800    1.0202176    1.5303211    3.4930414    23.102973    23.088044    23.122413    23.098461 0.0025084119           60 
    8900    1.0230716    1.5346021    3.4941435    23.097303    23.133741    23.063291    23.094877  0.011125177           60 
    9000    1.0221771    1.5332604    3.4926152    23.128132     23.09111    23.195955    23.097331 -0.0041835319           60 
    9100    1.0224969      1.53374    3.4942624      23.1301    23.107258    23.137094    23.145948 -0.026177144           60 
    9200    1.0213485    1.5320174    3.4922516    23.054012    23.028158    23.127939    23.005939  0.024304222           60 
    9300    1.0217146    1.5325666    3.4893422    23.092679    23.060061    23.128201    23.089773 0.0048219682           60 
    9400    1.0216841    1.5325208    3.4894178    23.090819    23.096873    23.126899    23.048683 -0.010155327           60 
    9500     1.022168    1.5332466     3.494861    23.119883    23.109755    23.166284    23.083611 -0.018284489           60 
    9600    1.0210233    1.5315296    3.4905464    23.081237    23.080766    23.088416    23.074529 -0.0065151694           60 
    9700    1.0245714    1.5368518    3.4919812    23.113238    23.179207    23.097817     23.06269 -0.0039571671           60 
    9800    1.0216857    1.5325232     3.491242    23.101773    23.104013     23.08772    23.113587 -0.0033886149           60 
    9900    1.0218972    1.5328404    3.4896797    23.093509    23.082233    23.091784    23.106509  0.027655122           60 
   10000      1.02221    1.5333097    3.4928888    23.106992    23.121984    23.101102    23.097888 -0.020712973           60 
   10100     1.020905    1.5313523    3.4909324    23.088367    23.085095    23.087561    23.092444 0.0017708848           60 
   10200    1.0218792    1.5328134    3.4915321    23.103122    23.110664    23.111534    23.087168  0.022323831           60 
   10300    1.0223107    1.5334608    3.4913652    23.079284    23.068011    23.118466    23.051377 -0.006755264           60 
   10400    1.0204881    1.5307269    3.4914173    23.072866    23.082883    23.040128    23.095588 0.0080151097           60 
   10500    1.0231783    1.5347621    3.4899037    23.089286    23.080186    23.108359    23.079313 -0.032352144           60 
   10600    1.0203051    1.5304524    3.4911306    23.105884     23.09398    23.090289    23.133383 -0.012570394           60 
   10700    1.0200012    1.5299965    3.4868394    23.073358    23.099047    23.070356    23.050671 0.0072263247           60 
   10800    1.0204984    1.5307422    3.4850426    23.073798    23.057534    23.130436    23.033425 0.0088103288           60 
   10900    1.0216053    1.5324026    3.4898646     23.11435    23.125929    23.109051    23.108069  -0.04085477           60 
   11000    1.0226599    1.5339846    3.4868863    23.098253    23.116411    23.095898    23.082449 0.0032002306           60 
   11100    1.0203503    1.5305202      3.48439    23.090995    23.099781    23.113423     23.05978  0.025467553           60 
   11200    1.0194983    1.5292421     3.485851    23.068195       23.023    23.094885      23.0867  -0.01869534           60 
   11300    1.0230234    1.5345298    3.4825818    23.072905    23.078622    23.074794    23.065297  0.015064371           60 
   11400    1.0225813    1.5338666    3.4854623    23.059928    23.030434    23.065657    23.083693 0.0066983266           60 
   11500     1.023822    1.5357277    3.4883775    23.063037    23.069856    23.047543    23.071713 -0.010141123           60 
   11600    1.0207981    1.5311919    3.4856843    23.086101    23.101358     23.11299    23.043955 -0.021226486           60 
   11700    1.0216678    1.5324964    3.4833606    23.100256     23.10476     23.11555    23.080457 -0.0089759254           60 
   11800    1.0224665    1.5336945    3.4870012    23.105562    23.120046     23.07835    23.118288 0.0017549833           60 
   11900      1.02112    1.5316746    3.4834779    23.093857    23.076991    23.089877    23.114702  0.039914742           60 
   12000    1.0197011    1.5295463    3.4810657    23.038559    23.037374    23.048371    23.029933 -0.0018088312           60 
   12100    1.0232047    1.5348017     3.484126     23.10694    23.070307    23.150858    23.099655   -0.0193502           60 
   12200    1.0252265    1.5378343    3.4846165    23.115204    23.137291     23.13115     23.07717 -0.0022540466           60 
   12300    1.0198253    1.5297327    3.4845519    23.062568    23.040379    23.107418    23.039907 0.0068293472           60 
   12400    1.0238761    1.5358089    3.4863593    23.107807    23.104483    23.150874    23.068065 0.0015862466           60 
   12500    1.0217373    1.5326007    3.4827662      23.0925    23.084295    23.110962    23.082242 0.0078349285           60 
   12600    1.0235292    1.5352885    3.4849351     23.06531     23.06214    23.112907    23.020882  0.027773486           60 
   12700    1.0231141    1.5346659    3.4839781    23.086339    23.101769    23.053565    23.103682   0.02334475           60 
   12800    1.0213974    1.5320907    3.4807064    23.084766    23.073006    23.136338    23.044954 0.0097488212           60 
   12900    1.0229352    1.5343975     3.483115    23.086756    23.119189     23.05718      23.0839 -0.0018975026           60 
   13000     1.020919    1.5313731    3.4804676    23.041591    23.029667    23.080367    23.014738  0.016341891           60 
   13100    1.0218944    1.5328363    3.4822903    23.042131    23.039751    23.027854    23.058788 -0.020969533           60 
   13200    1.0207225    1.5310785    3.4810862    23.079957    23.088153    23.114792    23.036925 -0.006337129           60 
   13300    1.0228952    1.5343375    3.4814318    23.071097    23.083848    23.093251    23.036191 -0.012690586           60 
   13400    1.0236879    1.5355266    3.4812573    23.078898    23.073381    23.105244    23.058069 -0.031797886           60 
   13500    1.0191021    1.5286479    3.4805162    23.055921    23.029299     23.10789    23.030573 -0.0043022534           60 
   13600    1.0202556    1.5303781    3.4782375    23.082852    23.115333     23.08715    23.046074  -0.00961396           60 
   13700    1.0197582    1.5296319    3.4806779    23.039927    23.086721    23.055744    22.977317 0.0021129904           60 
   13800    1.0217864    1.5326743    3.4769944    23.103467    23.086735    23.103649    23.120017 -0.0090983247           60 
   13900    1.0217851    1.5326723    3.4805335    23.121259    23.093174    23.156926    23.113677 -0.0016147895           60 
   14000    1.0217428    1.5326089    3.4792297    23.092826    23.115229    23.093927    23.069321  0.023214523           60 
   14100    1.0202274    1.5303359    3.4777898    23.064813    23.015879    23.100645    23.077916 -0.0060669156           60 
   14200    1.0213428    1.5320089    3.4779906    23.078022    23.068148    23.084549    23.081368 -0.0099477781           60 
   14300    1.0210984    1.5316423    3.4790237    23.048613     23.02917    23.064456    23.052214 -0.020547514           60 
   14400     1.021534    1.5322956    3.4763667    23.047887    23.025793    23.030832    23.087037  0.008716586           60 
   14500    1.0214808    1.5322159    3.4773854    23.102961    23.076141    23.123663    23.109078 -0.0028598498           60 
   14600    1.0237305    1.5355905    3.4762289     23.03288    23.027893    23.068588     23.00216   0.03004507           60 
   14700    1.0223326    1.5334936    3.4767059    23.050219    23.047547    23.045822    23.057288 -0.045307176           60 
   14800    1.0216315    1.5324419    3.4785505    23.085848     23.06672    23.107676    23.083147 -0.022392751           60 
   14900    1.0214926    1.5322336    3.4771008    23.054197    23.075083    23.066542    23.020965  0.011528632           60 
   15000    1.0207049     1.531052    3.4721586    23.096717    23.100066    23.088956    23.101131 -0.012567035           60 
   15100    1.0202893    1.5304287    3.4771562    23.069099    23.098582     23.04498    23.063735  0.011003571           60 
   15200    1.0209222    1.5313779     3.474473      23.0762    23.066277    23.074225    23.088097 -0.0099065261           60 
   15300    1.0214417    1.5321572    3.4776358     23.09055    23.092214    23.098625    23.080811  0.012286235           60 
   15400    1.0220174    1.5330208    3.4784268     23.07397    23.096362    23.077493    23.048055  0.045340776           60 
   15500    1.0238173    1.5357207    3.4751103    23.063827    23.039416    23.074324    23.077742   0.03423447           60 
   15600    1.0244343    1.5366461    3.4750794    23.059197    23.034785     23.05995    23.082857 -0.031823946           60 
   15700    1.0218033    1.5326996    3.4737692    23.098022    23.118317    23.090088    23.085662  0.016203587           60 
   15800    1.0211883    1.5317771    3.4769899    23.030735    23.042028    23.020348    23.029829 -0.0054022636           60 
   15900    1.0205714    1.5308518    3.4768688    23.094298    23.117609    23.084879    23.080404   0.03494347           60 
   16000    1.0216392    1.5324535    3.4724146    23.074323    23.052994    23.102196    23.067778 -0.012874673           60 
   16100    1.0228633    1.5342897    3.4738997     23.04295    23.072891    23.033702    23.022255 0.0056041585           60 
   16200       1.0222    1.5332947     3.474227    23.099067    23.075142    23.125983    23.096074 -0.014121742           60 
   16300    1.0220249    1.5330321    3.4753492    23.081185    23.030285    23.114809    23.098461  0.033572394           60 
   16400    1.0187388     1.528103    3.4743336     23.05462    23.042337    23.081073    23.040449  0.028062866           60 
   16500     1.022751    1.5341212    3.4740511    23.042255    23.043957    23.021584    23.061225 -0.011778939           60 
   16600    1.0231198    1.5346744    3.4707804    23.040881     23.03085    23.062818    23.028976 -0.00061190173           60 
   16700    1.0194409    1.5291561    3.4721558    23.074453    23.077966    23.099619    23.045774 0.0019153304           60 
   16800    1.0194565    1.5291794    3.4732385    23.064493    23.044536     23.10835    23.040592 -0.028921121           60 
   16900    1.0219734    1.5329547    3.4745027    23.051775    23.077006    23.059039    23.019279 -0.010686897           60 
   17000     1.020708    1.5310566    3.4753049    23.022656    23.010956    23.041644    23.015367  0.010183947           60 
   17100    1.0233683    1.5350471    3.4726459    23.068862    23.027282    23.121141    23.058162 -9.9760887e-06           60 
   17200    1.0216114    1.5324118    3.4706542    23.024817    23.015803    23.022443    23.036205 0.0026387268           60 
   17300     1.022377    1.5335602    3.4699524    23.033985    23.014063    23.055289    23.032602 -0.0011689973           60 
   17400    1.0231526    1.5347235    3.4724554    23.037901    22.996285    23.070976    23.046443 -0.0087183722           60 
   17500    1.0221608    1.5332359    3.4721112    23.069994    23.042535    23.101238    23.066208 -0.040967462           60 
   17600    1.0196287    1.5294378    3.4727156     23.04614    23.051042    23.073253    23.014124 0.0016224986           60 
   17700    1.0222678    1.5333963    3.4734264    23.078041    23.073144    23.104996    23.055982  0.031201434           60 
   17800    1.0246393    1.5369535    3.4745789    23.089289    23.089476    23.094041    23.084349  0.022563691           60 
   17900    1.0205131    1.5307644    3.4752848    23.055972    23.110761    23.043366    23.013789 0.0040208234           60 
   18000    1.0221095    1.5331589    3.4707663    23.067823    23.020625    23.109894    23.072949 -0.0092206389           60 
   18100    1.0200855     1.530123    3.4727608    23.046852    23.042978    23.092057     23.00552 -0.020321024           60 
   18200    1.0212815    1.5319169    3.4728244    23.062168    23.049495    23.089726    23.047282 0.0010508144           60 
   18300     1.020824    1.5312306    3.4719682    23.089429    23.038066    23.131033    23.099189 0.0067126347           60 
   18400    1.0222313    1.5333417    3.4724132    23.078234    23.054154    23.064395    23.116153 0.0091989508           60 
   18500    1.0220026    1.5329986    3.4728916    23.080279    23.071601    23.077632    23.091604 -0.017855911           60 
   18600    1.0205667    1.5308448    3.4750352    23.065836    23.072848    23.064208    23.060453  0.010959252           60 
   18700    1.0220897    1.5331292    3.4701201    23.028637    23.001533    23.083655    23.000724 -0.030334946           60 
   18800    1.0209776     1.531461    3.4686659    23.053322    23.027567    23.071374    23.061025 -0.0037118999           60 
   18900    1.0236221    1.5354278    3.4687905    23.023363    23.026873    23.055188    22.988027 -0.016005791           60 
   19000    1.0228804    1.5343152    3.4710759    23.068546    23.096365    23.080096    23.029176 -0.0045968245           60 
   19100    1.0199655    1.5299429    3.4716953    23.067242    23.078964    23.057375    23.065387 -0.026334823           60 
   19200    1.0196824    1.5295182    3.4692962    23.057001    23.042271    23.073763    23.054967 -0.013920608           60 
   19300    1.0199728    1.5299539    3.4690273    23.017173    23.029089    23.033371    22.989058 -0.0083686528           60 
   19400    1.0220838    1.5331203    3.4689066    23.094145    23.037496     23.13868    23.106259  0.027395445           60 
   19500    1.0234333    1.5351446    3.4672344    23.066553    23.076766    23.072724     23.05017 -0.038355236           60 
   19600    1.0208932    1.5313345    3.4707817    23.069841    23.038657    23.072768    23.098097  0.009597399           60 
   19700    1.0212778    1.5319113    3.4730896     23.04625    23.089631    23.040415    23.008703  0.016109159           60 
   19800     1.020745    1.5311122    3.4707881    23.034836    23.051949    23.053904    22.998655  0.035558088           60 
   19900    1.0214265    1.5321345    3.4695045    23.073629    23.078913    23.108447    23.033528  -0.01425841           60 
   20000    1.0213521    1.5320228     3.469459    23.057882    23.042184    23.064892    23.066571 -0.0073889381           60 
   20100    1.0221919    1.5332825    3.4694227    23.055366    23.067112    23.085913    23.013072  0.029366785           60 
   20200     1.022914    1.5343656    3.4681108    23.023815    23.029005    23.033556    23.008884  0.021246433           60 
   20300    1.0243789     1.536563    3.4705731    23.057436    23.051793    23.100563    23.019952  0.011497126           60 
   20400    1.0234406    1.5351556     3.471979    23.069305    23.060336     23.09531     23.05227 -0.031094337           60 
   20500    1.0220321    1.5330428    3.4679491    23.055556    23.062681    23.070442    23.033544 0.0073230004           60 
   20600    1.0213536    1.5320251    3.4681575    23.068582    23.049866    23.075862    23.080017 0.0068886525           60 
   20700    1.0194967    1.5292397    3.4691276    23.062062    23.059336    23.071579    23.055271  0.010890591           60 
   20800    1.0206361    1.5309488    3.4666374     23.06008     23.08559    23.093951    23.000699 -0.0087660569           60 
   20900    1.0222974    1.5334408     3.469577    22.975453    22.980197    22.995177    22.950986  0.012598688           60 
   21000    1.0227296     1.534089    3.4676507    23.002419    23.008546    23.021813    22.976897 0.00039524984           60 
   21100    1.0210318    1.5315423    3.4646148    23.081251    23.120498    23.078672    23.044582 -0.0064553368           60 
   21200    1.0194961    1.5292388    3.4646098    23.080484    23.066946    23.075385    23.099119  0.021611892           60 
   21300    1.0223739    1.5335556    3.4677913    23.057624    23.075005    23.034353    23.063514  0.001582977           60 
   21400    1.0237776    1.5356611    3.4672497     23.07495    23.071931    23.072507     23.08041 -0.0030108606           60 
   21500    1.0197288    1.5295879     3.464377    23.058503    23.081174    23.058525     23.03581 -0.0018281754           60 
   21600    1.0231974    1.5347908    3.4669472    23.044508    23.063714    23.042833    23.026976 -0.026077252           60 
   21700    1.0207265    1.5310844    3.4629373    23.052064    23.019924    23.082854    23.053412 0.0078004772           60 
   21800    1.0237551    1.5356274     3.464064    23.061185    23.103374    23.040162    23.040019 -0.0041347595           60 
   21900    1.0211941    1.5317858    3.4658655    23.035388    23.044331     23.02374    23.038092  0.028651148           60 
   22000     1.022189    1.5332782    3.4670941    23.058284    23.102368    23.018825     23.05366  0.023600208           60 
   22100     1.022265    1.5333921    3.4618942    23.050131    23.030391    23.088473     23.03153  0.019397075           60 
   22200    1.0231441    1.5347107    3.4638173    23.063615    23.022221    23.093192    23.075433 -0.0076592782           60 
   22300    1.0232373    1.5348506    3.4678431    23.032996    23.053286    23.032017    23.013686  -0.01292997           60 
   22400    1.0190556    1.5285781    3.4677118    23.038307    23.010636    23.029034    23.075252 -0.0037471864           60 
   22500    1.0208092    1.5312084    3.4653774    23.045905    23.046848    23.033699    23.057166 -0.028829053           60 
   22600    1.0206692    1.5309985    3.4644561    23.031079    23.048194    23.015172    23.029872 0.0041111493           60 
   22700    1.0200003    1.5299951    3.4625653    23.058529    23.041823    23.055864      23.0779  0.014275477           60 
   22800    1.0219701    1.5329499    3.4655926    23.032581    22.986707     23.03406    23.076977 -0.030688037           60 
   22900    1.0226436    1.5339601    3.4625831    23.023638    23.024235    23.059602    22.987075 -0.0015655319           60 
   23000    1.0200223    1.5300281    3.4628509    23.035497    23.035954    23.032625    23.037912  0.027506005           60 
   23100    1.0200673    1.5300957    3.4645827    23.017223    23.026424     23.00979    23.015456 -0.016242352           60 
   23200    1.0216352    1.5324474    3.4636207    23.050438    23.052968    23.048516    23.049829 -0.039475517           60 
   23300    1.0237156    1.5355681    3.4623625    23.034753    23.044399    23.047999    23.011861  0.018589085           60 
   23400      1.02148    1.5322147    3.4627452      23.0364    23.075425    23.052384     22.98139 0.0039693921           60 
   23500    1.0244396    1.5366541      3.46263    23.048927    23.028072    23.056942    23.061766  0.012570411           60 
   23600    1.0215384    1.5323023    3.4670769    22.993659    23.021224    22.985977    22.973774  0.013602254           60 
   23700    1.0210518    1.5315723    3.4597928    23.041147    23.039933    23.053878    23.029628 -0.016888047           60 
   23800    1.0205175    1.5307709    3.4592765    23.011525    23.025542    23.001279    23.007755 0.0090274198           60 
   23900    1.0208309     1.531241    3.4633066    23.009636    23.001423    23.037306    22.990179  0.011191742           60 
   24000    1.0229172    1.5343705    3.4650127    23.073159    23.051072    23.056831    23.111575  0.020092653           60 
   24100    1.0204138    1.5306154    3.4639064    23.042116    23.043302    23.018096    23.064951  0.034727941           60 
   24200    1.0244071    1.5366053    3.4639418    23.077995    23.056135    23.113811    23.064039 0.00048628489           60 
   24300    1.0200845    1.5301214    3.4624698    23.038844    23.006926    23.094255    23.015352  0.022559674           60 
   24400    1.0211516    1.5317221    3.4625085    23.028522     23.05433    23.014744    23.016491 -0.017650655           60 
   24500    1.0210977    1.5316412    3.4621096    23.058352    23.047964    23.043869    23.083224  0.024311753           60 
   24600    1.0218514    1.5327718    3.4599567    23.025081    23.005436    23.067847    23.001959 0.0095654576           60 
   24700    1.0215884    1.5323773    3.4610598    23.026199    23.046791    23.025464    23.006343 -0.011278966           60 
   24800    1.0222936    1.5334351    3.4611631    23.003879    22.958199    23.027877    23.025562 -0.0068364972           60 
   24900    1.0207432    1.5311095    3.4616115    23.002903    22.991006    23.012717    23.004986 0.0061372253           60 
   25000    1.0217782    1.5326619    3.4593921    23.040659    23.019692    23.081553    23.020732 -2.7886828e-05           60 
   25100    1.0241904    1.5362803    3.4603561    23.066737    23.087061    23.107826    23.005325 0.0010418348           60 
   25200    1.0202936    1.5304351    3.4597932    23.056461    23.116252     23.01932    23.033812  0.011211828           60 
   25300    1.0202416    1.5303571    3.4608947    23.032876    22.991208    23.044449    23.062969  0.026674348           60 
   25400    1.0194906    1.5292306    3.4579852    23.028208    23.030547    23.048475    23.005603 0.0096175461           60 
   25500    1.0222831    1.5334193    3.4631646    23.076577    23.068014    23.078741    23.082975 -0.017089279           60 
   25600    1.0213634    1.5320398    3.4640064    23.053009    23.048232    23.064558    23.046237 0.0022357784           60 
   25700    1.0226238    1.5339304     3.461708    23.031749    23.043262    23.035475    23.016509 -0.021549731           60 
   25800    1.0227233    1.5340796    3.4597109    23.069507    23.081656    23.073033    23.053833 -0.036004969           60 
   25900    1.0214932    1.5322345    3.4615839    23.009993    23.032923    23.044888    22.952168 -0.014084221           60 
   26000    1.0228917    1.5343322    3.4617476    23.040703    23.067241    23.004103    23.050766 -0.017122273           60 
   26100    1.0207531    1.5311243    3.4608402    23.050224    23.033507    23.050527    23.066639  0.018098283           60 
   26200    1.0223777    1.5335612    3.4607361    23.070997    23.059286    23.100684    23.053021 -0.039181925           60 
   26300    1.0232177    1.5348212    3.4592277    23.056879    23.063022    23.053005     23.05461 0.0048903239           60 
   26400    1.0218532    1.5327745    3.4620628    23.034183    23.047769    23.039348    23.015431  -0.02264942           60 
   26500    1.0226552    1.5339774    3.4621696    23.029045    23.029751    23.041331    23.016052  0.011908035           60 
   26600    1.0204275     1.530636    3.4619335    23.045369    23.077426    23.013544    23.045137 -0.029925858           60 
   26700    1.0227716    1.5341521     3.459044     23.02572    23.003189    23.048756    23.025216 0.0026853256           60 
   26800    1.0216226    1.5324286    3.4620542    23.053401    23.034249    23.040526    23.085428 -0.0048348902           60 
   26900    1.0203715    1.5305519    3.4600419    23.068066    23.075311    23.078127    23.050761 0.00090412575           60 
   27000    1.0207564    1.5311293    3.4595573    23.068387    23.114316     23.08408    23.006763 -0.019686383           60 
   27100    1.0221451    1.5332124    3.4608554    23.030176    23.027824    23.030683    23.032021 0.0081985057           60 
   27200    1.0219205    1.5328754    3.4585236    23.036069    23.038076    23.043074    23.027057 0.0041928368           60 
   27300     1.021444    1.5321607    3.4557334    23.025698    23.049246    23.009459    23.018389 0.00025508391           60 
   27400    1.0196305    1.5294404    3.4598505    23.052652    23.031183    23.048251    23.078522  -0.04609589           60 
   27500    1.0252054    1.5378027    3.4606601    23.061808    23.094267    23.049573    23.041585 -0.026927736           60 
   27600    1.0229152    1.5343675    3.4599519    23.064274    23.062724    23.082595    23.047504  0.023696249           60 
   27700    1.0211669     1.531745     3.461286      23.0794     23.04588    23.123968    23.068352 0.0072771717           60 
   27800    1.0213993    1.5320936    3.4598485    23.038278     23.04551    23.024983    23.044339 0.0040187439           60 
   27900    1.0204473    1.5306657    3.4604901    23.043871    23.050933    23.042488    23.038192 -0.008799908           60 
   28000     1.021804    1.5327006    3.4622461    23.015454    23.059076    22.998152    22.989134 -0.018390461           60 
   28100    1.0231217    1.5346772    3.4655206     23.02951    23.030213    23.022247     23.03607  0.006869716           60 
   28200    1.0233217    1.5349772    3.4592357    23.060747    23.076818    23.096316    23.009108 -0.001912004           60 
   28300    1.0217977    1.5326913    3.4571204    23.027074      23.0179    23.016562    23.046761 -0.0022266584           60 
   28400    1.0210093    1.5315087    3.4610581     23.03381     23.04708    23.041579     23.01277 -0.014457292           60 
   28500    1.0220236    1.5330301    3.4590333    23.011751    23.020308    23.003086    23.011858 -0.0050025276           60 
   28600    1.0206613    1.5309866    3.4568665    23.030713    23.064681    23.029122    22.998335 0.00094485867           60 
   28700    1.0218018    1.5326974    3.4588339    23.045679    23.043191    23.062374    23.031474 0.0017971342           60 
   28800    1.0225116     1.533762    3.4593528    23.067396    23.049645    23.077969    23.074574 -0.0078135706           60 
   28900    1.0217907    1.5326807     3.459104    23.029641    23.048125    23.006308    23.034489 -0.028135751           60 
   29000    1.0196977    1.5295413    3.4587924    23.026973    23.035394    23.037707    23.007819 -0.0087310025           60 
   29100    1.0214098    1.5321093    3.4616416    23.032701    23.022828    23.064597    23.010677 -0.015268034           60 
   29200    1.0241739    1.5362555    3.4575023    23.022827    23.027992    23.042283    22.998205 -0.0050884046           60 
   29300    1.0250394    1.5375537    3.4563813    23.054095    23.073641    23.046332    23.042314 -0.025616309           60 
   29400    1.0213386    1.5320025    3.4607837    23.075201    23.113424    23.086487    23.025692 -0.011541967           60 
   29500    1.0205108    1.5307609     3.459475    23.058673    23.059334    23.051897    23.064787  0.025008536           60 
   29600    1.0213973    1.5320906    3.4600824    23.047045    23.074598    23.045235    23.021304 -0.018817859           60 
   29700    1.0242589     1.536383    3.4580396    23.072886    23.112888    23.090192    23.015579 0.0018098882           60 
   29800    1.0218218    1.5327273     3.459601     22.99371    23.023659    22.994339    22.963132 0.0081254598           60 
   29900    1.0203388    1.5305029    3.4598122    23.066156    23.020471    23.087795    23.090203   0.01593631           60 
   30000    1.0210325    1.5315434    3.4587324    23.054627    23.029587    23.071945    23.062348  -0.00501463           60 
   30100    1.0189003    1.5283452    3.4546728     22.99766    23.036153    22.964752    22.992075 -0.0044861303           60 
   30200    1.0204983    1.5307421    3.4577087    23.017377     23.03101    23.021817    22.999303 -0.014524216           60 
   30300    1.0205154    1.5307678     3.455872    23.040821     23.06697    22.992735    23.062758 -0.020785484           60 
   30400    1.0198714    1.5298018    3.4559343    23.009628    23.056341    22.968822     23.00372  0.026418315           60 
   30500    1.0212387    1.5318528    3.4606547    23.012225     22.97675    23.051071    23.008856   0.02519588           60 
   30600    1.0216823    1.5325181    3.4620024    23.027021    23.029244    23.022026    23.029793 -0.0029353399           60 
   30700    1.0213978    1.5320914    3.4557906    23.058647    23.090017    23.027998    23.057924 -0.010850865           60 
   30800    1.0209745    1.5314564    3.4563504    23.028069    23.089572    23.022621    22.972014 -0.0076337507           60 
   30900    1.0212139    1.5318156    3.4540754    22.979423    22.977889    23.008167    22.952212  0.017814615           60 
   31000    1.0224424    1.5336582    3.4622557    23.039168    23.040005    23.065253    23.012247 0.0082584203           60 
   31100     1.019731    1.5295912    3.4549879    23.030715    23.038555    22.991722    23.061869  0.017592431           60 
   31200    1.0201011    1.5301463    3.4538538    23.011047    23.019312    23.009778     23.00405 -0.0027193956           60 
   31300    1.0197144    1.5295663    3.4597328    23.014512    23.001421    22.991864    23.050253 -0.018144358           60 
   31400    1.0221433    1.5332096    3.4541911    23.017522    23.006896    23.026333    23.019337 -0.001264985           60 
   31500    1.0235349     1.535297    3.4560587    23.056325    23.067466    23.056273    23.045234  0.017228038           60 
   31600    1.0197106    1.5295606    3.4563051    23.016806    23.068711    23.026344    22.955362 -0.0021635244           60 
   31700    1.0198548    1.5297768    3.4546664    23.023359    23.053494    22.987368    23.029213 -0.016502074           60 
   31800    1.0225255    1.5337829    3.4557786    23.036762    23.054598    23.032344    23.023345 -0.019310231           60 
   31900    1.0214533    1.5321747    3.4509799    23.022706    23.087176     23.00604    22.974901 0.0031775334           60 
   32000    1.0221366    1.5331996    3.4580806    23.057715    23.088622    23.044339    23.040183 0.0035699432           60 
   32100    1.0198567    1.5297797    3.4555573    23.010167    23.045272    22.964677    23.020553 0.0056628821           60 
   32200    1.0232105    1.5348105     3.456317     23.06753    23.089916    23.094038    23.018635 -0.029889045           60 
   32300    1.0238853    1.5358227    3.4558343    23.047474    23.064395     23.02015    23.057878 -0.025729309           60 
   32400    1.0200326    1.5300436    3.4526775    23.012499    23.011221     23.01098    23.015294 -0.0098669054           60 
   32500    1.0222062    1.5333039    3.4498405    23.017444    23.010521    23.037753    23.004058  0.011528677           60 
   32600    1.0211353    1.5316976    3.4537919    23.036811    23.033062    23.067542    23.009828 0.0023304374           60 
   32700    1.0199961    1.5299889    3.4543773    22.989844    23.002737    23.027303    22.939493 -0.036608979           60 
   32800    1.0216748    1.5325069    3.4545566    23.005091    23.004497    23.018196     22.99258 -0.012167638           60 
   32900    1.0222046    1.5333016    3.4531527     23.01748    23.061752    23.021128    22.969558 0.0041287391           60 
   33000    1.0219276    1.5328861    3.4554356     22.97197    22.958143    22.979984    22.977782 -0.010157743           60 
   33100    1.0206184    1.5309222    3.4528751    23.032667    23.009873    23.073408     23.01472 -0.021586997           60 
   33200    1.0241365    1.5361993    3.4553266    23.047423    23.075091    23.033579    23.033599 -0.019501025           60 
   33300    1.0224583    1.5336822    3.4530351    22.988523    23.005684    22.972952    22.986933 0.0039267435           60 
   33400    1.0245116     1.536762     3.455331    22.969499    22.964416    22.993642    22.950439  0.020519245           60 
   33500    1.0213462     1.532014    3.4540172    23.046434    23.043105    23.058497    23.037699 0.0093336206           60 
   33600    1.0235225    1.5352784    3.4543109    23.048892    23.023167    23.105569    23.017941 0.0024462376           60 
   33700    1.0221172    1.5331705    3.4515857    23.007586    22.993184    23.014781    23.014794 -0.0018347118           60 
   33800     1.024868    1.5372966    3.4552105    23.039006    23.074456    23.037529    23.005034 -0.0030736112           60 
   33900    1.0231783    1.5347621    3.4547254    22.999601    22.992472    23.006188    23.000143 -0.0068454144           60 
   34000    1.0220252    1.5330325    3.4515547    23.034548    23.021629    23.070059    23.011957 -0.034331188           60 
   34100    1.0250165    1.5375194    3.4515537    23.036653    23.066005    23.021603    23.022352 -0.023105955           60 
   34200    1.0200331    1.5300443    3.4529912    22.994233    23.005136    22.982197    22.995366 -0.0083041712           60 
   34300    1.0222565    1.5333795    3.4526902    23.012486    23.039039    22.980563    23.017855 -0.0066382731           60 
   34400    1.0200109     1.530011    3.4519829    23.004158    23.018576    22.991663    23.002236  0.011719537           60 
   34500    1.0184631    1.5276893    3.4528154     23.00635    22.992804     23.02105    23.005194  0.010518324           60 
   34600    1.0190709     1.528601    3.4526019     23.02459    23.007276    23.008409    23.058085 0.0044532688           60 
   34700    1.0209376     1.531401    3.4551579    23.032164    23.046177    23.065132    22.985184 0.0082463082           60 
   34800    1.0197411    1.5296063    3.4508701    23.004601    23.031309    22.996458    22.986036 -0.030512693           60 
   34900     1.022496    1.5337387    3.4535927    23.039127     23.09788    23.049299    22.970201 -0.020415551           60 
   35000    1.0214604    1.5321853    3.4500945    23.016753    23.058519    22.953912    23.037828 -0.0039978365           60 
   35100    1.0195579    1.5293315    3.4540205    22.997775    22.978424    23.027909    22.986993 -0.014069873           60 
   35200    1.0218731    1.5328043    3.4523318    23.008562    23.015816    23.025902    22.983967 -0.018439962           60 
   35300    1.0203518    1.5305223    3.4558676    23.030203    23.052152    22.974346    23.064111 -0.0031707932           60 
   35400    1.0208546    1.5312766     3.451183     23.03198    23.039889    23.076797    22.979254 -0.028085533           60 
   35500    1.0207393    1.5311036    3.4557029    23.033997    23.039174    23.075135    22.987683 -0.029172192           60 
   35600     1.023333    1.5349942    3.4483797      23.0724    23.070795    23.101032    23.045373 -0.0063012373           60 
   35700     1.018825    1.5282322    3.4522581    23.039349    23.026948    23.060402    23.030697 -0.0055651739           60 
   35800    1.0226859    1.5340235    3.4504656    23.043374    23.027422    23.093098    23.009602 -0.0024940113           60 
   35900    1.0177458    1.5266134    3.4515054    22.968278     23.00261    22.979846     22.92238  0.023455737           60 
   36000    1.0216605    1.5324854    3.4515247    23.012028    23.033494    23.026329     22.97626 -0.023806104           60 
   36100    1.0194834    1.5292197     3.453575    23.027375    23.035202    23.030951    23.015972 -0.0033840314           60 
   36200    1.0202213    1.5303266    3.4492156    22.994879    22.952699    23.015474    23.016465 -0.021969888           60 
   36300    1.0231897    1.5347792    3.4538036    23.058356     23.07279    23.031544    23.070734 -0.014325054           60 
   36400    1.0222284    1.5333373    3.4532888    23.047306    23.063463    23.023193    23.055261  0.025970799           60 
   36500    1.0194831    1.5292194     3.450816    22.984245     22.96588    23.002633    22.984222 -0.0022551058           60 
   36600    1.0208854    1.5313228    3.4524812    22.959155    22.957187    22.951151    22.969127  0.006706211           60 
   36700    1.0201592    1.5302335    3.4520332    23.004973     23.01366    22.994699    23.006562 -0.034898266           60 
   36800      1.02172    1.5325747    3.4488538    22.985015    23.019063     22.99899    22.936993 -0.0087714891           60 
   36900    1.0242052    1.5363025     3.453231    23.025279    23.024049    23.017624    23.034163  0.004490921           60 
   37000    1.0236884    1.5355273    3.4481495    23.039211    23.078942    23.020113    23.018579 -0.041837457           60 
   37100    1.0219712    1.5329514    3.4518414    23.009774    23.011459    22.998199    23.019664 0.0037189262           60 
   37200    1.0229532    1.5344244    3.4491162    23.049373    23.056747    23.059935    23.031437  -0.00290775           60 
   37300    1.0210082     1.531507    3.4520068    23.045783    23.026508    23.080013    23.030827 0.0091286167           60 
   37400     1.022247    1.5333652     3.450663    23.006591    23.031722    22.978177    23.009874 -0.022758046           60 
   37500    1.0216605    1.5324855    3.4528166    23.002128    22.994846    22.990367    23.021172  0.015169432           60 
   37600    1.0206503    1.5309702    3.4507772    23.052847    23.076133    23.061783    23.020624 0.0046409009           60 
   37700    1.0228167    1.5342197    3.4531915    23.003431    23.045469    23.042834    22.921989 -0.00068317043           60 
   37800    1.0204379    1.5306515    3.4502796    23.035702    23.030316    23.046295    23.030494  0.043492643           60 
   37900     1.021372    1.5320527    3.4497766    23.032298    23.058554    23.039558    22.998784 0.0040167909           60 
   38000     1.020995    1.5314871    3.4502951    23.063593    23.052283    23.090079    23.048417   0.01270448           60 
   38100    1.0213655    1.5320429    3.4509634    23.023084    23.008402    23.019508    23.041341 -0.035158057           60 
   38200    1.0213487    1.5320177    3.4495685    23.026305    22.997631    23.087268    22.994015 -0.012630506           60 
   38300    1.0253892    1.5380785    3.4511995    23.084611    23.089763     23.08854    23.075529 -0.017292056           60 
   38400    1.0220896     1.533129    3.4534146    23.036991    23.033862    23.020569    23.056542 -0.029711119           60 
   38500     1.021544    1.5323107    3.4532928    23.049385    23.051147    23.071182    23.025825 -0.037066821           60 
   38600    1.0197324    1.5295934    3.4507606    23.022051    22.965084    23.045432    23.055637 -0.033548193           60 
   38700    1.0240249    1.5360321    3.4543911      23.0461     23.06378     23.05402      23.0205 -0.029189821           60 
   38800    1.0225464    1.5338142    3.4517694    23.020122    23.001157    23.022406    23.036804 -0.028609812           60 
   38900    1.0203374    1.5305008    3.4485173    22.999352    23.004283    22.990742     23.00303 -0.017400776           60 
   39000    1.0219734    1.5329548    3.4477666     23.03132    23.047375    23.017002    23.029584 -0.018395481           60 
   39100    1.0230479    1.5345665    3.4513247      22.9686    22.991951    22.936262    22.977588 -0.0086710244           60 
   39200    1.0210297    1.5315392    3.4521098    23.003771    23.024201    23.013888    22.973223  0.015933775           60 
   39300    1.0179224    1.5268782    3.4476571    22.977596    22.986879    22.979665    22.966245  0.023452997           60 
   39400    1.0235255    1.5352829    3.4533541    23.021826    23.042553    23.034877    22.988049  0.018349596           60 
   39500    1.0176524    1.5264733    3.4478308    23.058196    23.074833    23.051691    23.048065 0.0018235268           60 
   39600    1.0239212    1.5358764    3.4517737    23.019594    23.045558    23.022886    22.990337 -0.034618063           60 
   39700    1.0213094    1.5319588    3.4503443    23.034523      23.0194    23.070389    23.013781 -0.012596501           60 
   39800    1.0246393    1.5369537    3.4507429    23.035635    23.037767     23.04377    23.025368 -0.015682347           60 
   39900     1.021914    1.5328656    3.4498997    23.029716     23.06006    22.995944    23.033143    0.0291831           60 
   40000    1.0218948    1.5328368    3.4509382    22.993726    22.972775    23.058835    22.949567 -0.025368688           60 
   40100    1.0212046    1.5318015    3.4491415    22.997223    23.018622    22.976414    22.996634 -0.013582809           60 
   40200    1.0218789     1.532813     3.448261    23.010465    23.039527    22.992908    22.998959 -0.018446926           60 
   40300    1.0205823    1.5308682    3.4498701    23.011465    23.002921    23.031002    23.000472  0.044091831           60 
   40400    1.0239792    1.5359634    3.4486779    23.050309    23.042672    23.056591    23.051663 0.0031239405           60 
   40500    1.0218286    1.5327376    3.4503295    23.019509    22.983068    23.051886    23.023574  0.019819832           60 
   40600    1.0264717    1.5397021    3.4514748    23.015883    23.025428    23.024489    22.997733 -0.0036640639           60 
   40700    1.0202348    1.5303469    3.4521025    22.976858    22.997683    22.961101    22.971789 -0.0079200343           60 
   40800    1.0238553    1.5357775    3.4503636    23.023105    23.059497    23.004941    23.004877 -0.044162805           60 
   40900    1.0213592    1.5320334    3.4479855    23.021843    23.055085     23.03008    22.980363 -0.0042523881           60 
   41000    1.0226961    1.5340389    3.4506969    23.023676    23.042879    23.045475    22.982673 0.0093197767           60 
   41100    1.0240802    1.5361149    3.4502082    22.980729     22.96408     22.98261    22.995498 -0.063418469           60 
   41200    1.0229188    1.5343729    3.4463867    23.028608    23.017228    23.044275    23.024321 -0.0094358053           60 
   41300     1.018307    1.5274552    3.4487252    23.034917    23.083717    23.069469    22.951564  0.025904045           60 
   41400    1.0215495    1.5323189    3.4542643    23.020353    23.021146     23.07503    22.964883  0.019630545           60 
   41500    1.0212628    1.5318889    3.4472455    22.993916    23.015351    22.989869    22.976528 -0.027545668           60 
   41600    1.0212531    1.5318743    3.4476709    23.008167    23.051557    23.023682    22.949262  0.040431608           60 
   41700    1.0210335     1.531545    3.4502055    23.037129     23.00275    23.019839    23.088797 -0.020885729           60 
   41800    1.0199364    1.5298993     3.449791    23.013419    23.048579    22.995002    22.996675 -0.028521424           60 
   41900    1.0196661    1.5294938    3.4470483    22.998998    23.027527    23.014438    22.955028 -0.017584579           60 
   42000    1.0246432    1.5369594    3.4448948    23.009096    23.019372    23.021876    22.986039  0.033063058           60 
   42100    1.0244769      1.53671    3.4503765     23.03339    23.088221    23.017002    22.994947  0.010342969           60 
   42200    1.0235184    1.5352723    3.4519489    23.014066    22.989811    23.044823    23.007565 -0.0015831197           60 
   42300    1.0228419    1.5342575     3.451085    23.005036    22.990487    23.017502    23.007118 0.00055838129           60 
   42400     1.023639    1.5354532    3.4506059    23.029723    23.023975    23.003442    23.061751   0.01181377           60 
   42500    1.0196077    1.5294062     3.451667    22.990776    22.977504    22.983863     23.01096 0.0047321615           60 
   42600    1.0211604    1.5317352    3.4526705    23.010193    23.037803    22.996759    22.996017 -0.043011355           60 
   42700    1.0193725    1.5290534    3.4504964    23.028328    23.039198    23.012526    23.033259  0.031572573           60 
   42800    1.0221848    1.5332718    3.4502272    23.039211    23.049301    23.030767    23.037564 -0.018042416           60 
   42900    1.0227727    1.5341538    3.4500013    23.049496    23.066067    23.039728    23.042694 -0.020718117           60 
   43000    1.0201986    1.5302925    3.4498371    22.957681     22.96989    22.962366    22.940786 -0.011592572           60 
   43100    1.0196721    1.5295029    3.4480747    23.019899    23.038312    23.028438    22.992945  0.018498083           60 
   43200    1.0206158    1.5309184    3.4476154    22.993755    22.991779    22.974727     23.01476 0.0050246786           60 
   43300    1.0229971    1.5344903     3.452114    23.000149    22.993451    23.026448    22.980546 -0.026559594           60 
   43400    1.0203943    1.5305861    3.4482769    23.074871    23.075941      23.0861    23.062573  0.028599554           60 
   43500    1.0230075     1.534506    3.4503239     23.05486    23.022861    23.078815    23.062904 0.00056433411           60 
   43600    1.0201234    1.5301798    3.4479011    23.001094    23.033694    22.999978    22.969612 -0.024698257           60 
   43700     1.021992    1.5329827    3.4471315    23.041065    23.040082     23.02855    23.054564 0.0099904038           60 
   43800     1.022527    1.5337852    3.4470252    23.012382    22.992963    23.030682    23.013502 0.0055394811           60 
   43900     1.018685    1.5280222    3.4494597      22.9777    22.972731    23.008704    22.951665 -0.0063261103           60 
   44000    1.0226144    1.5339163    3.4480325    23.043724    23.055077    23.025886     23.05021 0.0016178725           60 
   44100    1.0213203    1.5319751    3.4508204    22.996975    23.003151    23.003611    22.984162  -0.03097171           60 
   44200    1.0209153    1.5313676    3.4500076    23.011871    23.027565    22.998962    23.009085 -0.018927445           60 
   44300    1.0210179    1.5315216    3.4465839    23.020599    23.000891       23.063    22.997908 -0.047886233           60 
   44400    1.0185139    1.5277656    3.4497387    23.022144    23.045417    23.024582    22.996433  0.011125564           60 
   44500    1.0206603    1.5309851    3.4478865    23.051189    23.047577     23.05273     23.05326 -0.018386308           60 
   44600    1.0220175    1.5330209    3.4492227    23.003276    22.995883    22.974054    23.039892 -0.026463768           60 
   44700    1.0211989     1.531793    3.4463064    23.016712    23.031453    23.040847    22.977835 -0.0057369884           60 
   44800    1.0243087    1.5364577    3.4470241    23.017079     23.03723    23.026171    22.987835  0.008875971           60 
   44900    1.0207067    1.5310548    3.4492524    22.991277    22.962182    23.013866    22.997782 0.0040668693           60 
   45000    1.0190169    1.5285201    3.4477812    23.011691     22.99918    22.997043    23.038849 0.0081413624           60 
   45100    1.0199632    1.5299394      3.44873    23.028061    23.017321    23.052052    23.014809 0.0082025335           60 
   45200    1.0224638    1.5336904    3.4467643    23.045074     23.03987    23.093522     23.00183 -0.030228746           60 
   45300    1.0190435    1.5285599    3.4477477    23.020254    23.016494    23.055831    22.988436  0.021221779           60 
   45400    1.0214045    1.5321014    3.4462206    23.024356    23.023391    23.046329    23.003347 -0.0052905323           60 
   45500    1.0202204    1.5303253    3.4479871     23.02356    23.031277    23.010312     23.02909  0.030830362           60 
   45600    1.0233219    1.5349775    3.4491952    23.026914    23.012861    23.058084    23.009797  0.012623076           60 
   45700    1.0241854    1.5362728    3.4454481     23.07851    23.040916    23.104181    23.090433 -0.018005726           60 
   45800    1.0230274    1.5345358    3.4476939    23.004803    22.989175    23.055201    22.970032  0.015148939           60 
   45900    1.0192751    1.5289074    3.4478738    23.012921    22.991041    23.064363    22.983359  0.007755116           60 
   46000    1.0205148    1.5307669    3.4490292      23.0128    23.009582     23.01803    23.010789 -0.032956806           60 
   46100    1.0221033    1.5331496     3.446896    23.022516    23.028993    23.006657    23.031897 -0.022296083           60 
   46200    1.0202082    1.5303069    3.4458824    23.016465    23.029181    22.982809    23.037405  0.016401049           60 
   46300    1.0214838    1.5322204    3.4457357    23.013321    23.018776    23.026908     22.99428 0.0095938362           60 
   46400    1.0224026    1.5335985    3.4468379    23.014608    23.065238    22.984806    22.993779 0.0064755377           60 
   46500    1.0198483    1.5297671    3.4489316    23.031787     23.02921    23.015505    23.050647 -0.0041095578           60 
   46600    1.0185094    1.5277588    3.4487033    22.998208    23.019203    22.993361    22.982059 -0.0094295169           60 
   46700    1.0184423    1.5276582    3.4446605    23.059216    23.063189    23.058955    23.055504 -0.022529925           60 
   46800    1.0231615     1.534737    3.4477751    23.040429     23.04523    23.051136    23.024921 0.00095217503           60 
   46900     1.020105    1.5301523    3.4459349    22.998523    23.015643    23.023182    22.956745 -0.013485026           60 
   47000    1.0218505    1.5327704    3.4499064    22.961446    22.951202     22.97451    22.958627  0.008582289           60 
   47100    1.0224995    1.5337439    3.4474544    22.994839    23.006781     22.96036    23.017374 -0.0081695922           60 
   47200    1.0221491    1.5332183     3.450792     23.01355    23.030955    23.021763    22.987932 -0.020004658           60 
   47300    1.0222607    1.5333857    3.4465615    23.009689    22.997327    23.039024    22.992715 -0.018129572           60 
   47400    1.0212285    1.5318375    3.4465028    22.996583     23.03395    22.981223    22.974578 -0.005971563           60 
   47500    1.0181978    1.5272914    3.4482625     22.97733    22.991877    22.975582    22.964532 -0.044042521           60 
   47600    1.0249078    1.5373564    3.4484738    22.983584    22.991314    22.973068    22.986371 -0.0061190761           60 
   47700    1.0212631    1.5318893    3.4480869      23.0157    23.064984    22.991119    22.990998 0.0083308276           60 
   47800    1.0178406    1.5267556    3.4503046     22.99063    23.015183    22.997988    22.958719 -0.0020191674           60 
   47900    1.0218303    1.5327402    3.4494523    23.025205    23.033439    23.029104    23.013072 -0.020394934           60 
   48000    1.0212911    1.5319313    3.4496465    22.992331    22.975544    23.028041     22.97341 -0.030083264           60 
   48100    1.0213854    1.5320728    3.4451074    23.018814     23.00288    23.057397    22.996166 0.0011273828           60 
   48200    1.0226924    1.5340332    3.4498617    23.021847    23.103339     23.01306    22.949142  0.009322485           60 
   48300     1.020868    1.5312967     3.447372    23.034163    23.031841    23.047309    23.023339 0.0049782246           60 
   48400    1.0222334    1.5333448    3.4489522    23.016782    23.062746    23.002341    22.985259 -0.0060660746           60 
   48500    1.0208254    1.5312327    3.4500232    23.021223     23.03551    23.017235    23.010923 0.0036591643           60 
   48600    1.0192654    1.5288928    3.4478985    23.009995    23.020372    23.024501    22.985111  0.018705762           60 
   48700    1.0207285    1.5310874    3.4495975    23.034601    23.075328    23.035185    22.993289  0.012131784           60 
   48800    1.0206066    1.5309046     3.448728    22.975179     22.95436    23.043733    22.927446 0.0030679562           60 
   48900    1.0241918    1.5362824    3.4461065    23.050818    23.050149    23.054133    23.048172   0.03179492           60 
   49000    1.0223239    1.5334806    3.4465629    23.023252    23.008231    23.057341    23.004182 -0.015650512           60 
   49100     1.021853    1.5327741    3.4468781    23.031985    23.020611    23.060554    23.014789 -0.0085040314           60 
   49200    1.0183716    1.5275521    3.4473653    23.010194    23.011301    23.000299    23.018983 -0.028104011           60 
   49300     1.021012    1.5315128    3.4453274    23.032331    23.076515    23.028271    22.992207 -0.019185663           60 
   49400    1.0207168    1.5310699    3.4469588     23.00587    22.994097    23.037759    22.985753  0.010260529           60 
   49500    1.0206149    1.5309171    3.4483468    22.957624    22.954107    22.959643    22.959122  0.031494467           60 
   49600    1.0233436      1.53501    3.4531727    23.040027     23.04883    23.050828    23.020424 -0.017138201           60 
   49700    1.0205515    1.5308219     3.450828    23.025742    23.052786    23.040769     22.98367 -0.024216185           60 
   49800    1.0215982     1.532392     3.449647    22.983339    22.957171    23.034908    22.957939 -0.00055090831           60 
   49900    1.0205163    1.5307691    3.4481223    23.028365    23.027555    23.058547    22.998994  0.013570015           60 
   50000    1.0212606    1.5318856    3.4490447    23.033536    23.045738    23.062959    22.991911  0.025795292           60 
   50100    1.0220743    1.5331061    3.4490476    22.956177    22.976688    22.965898    22.925944  0.039007681           60 
   50200    1.0200275    1.5300359    3.4479139    23.011457    23.030218    23.043415    22.960739  0.024866173           60 
   50300    1.0219864    1.5329742    3.4484427     22.99265    22.997067     23.01153    22.969352 -0.026720623           60 
   50400    1.0212954    1.5319378     3.449312    23.015799    23.010322    23.043574    22.993501 -0.0077668975           60 
   50500    1.0228455    1.5342629    3.4472929    23.042002     23.04193    23.075588    23.008489 -0.026698027           60 
   50600    1.0215929     1.532384    3.4458421    22.998332    23.010938     22.99572    22.988337 0.0055584794           60 
   50700    1.0208228    1.5312289    3.4477917    23.012642    23.050728    23.007386    22.979813 -0.011687551           60 
   50800    1.0218708    1.5328008    3.4449292    23.047739    23.059417    23.058842     23.02496 -0.0072553476           60 
   50900    1.0236144    1.5354163    3.4452508     23.02298    23.037572    23.027066    23.004303  0.018003759           60 
   51000    1.0215971    1.5323903    3.4486089    22.982731    22.984092    22.933404    23.030698 -0.042734037           60 
   51100     1.020067    1.5300951    3.4477331     23.02683    23.054005    23.066181    22.960305 -0.0096069157           60 
   51200    1.0206966    1.5310396    3.4475039    23.011931    23.031825    23.025683    22.978284 -0.0032457093           60 
   51300    1.0178534    1.5267748    3.4475746     22.98635    22.997931    23.000598    22.960521 0.0090794258           60 
   51400    1.0189509     1.528421    3.4474431    23.002608    23.032898    23.010335     22.96459 -0.0065717505           60 
   51500    1.0238257    1.5357333    3.4476023    23.011843    23.015053     23.06108    22.959396 0.0075872305           60 
   51600    1.0250027    1.5374988    3.4468018    23.017536    23.039761    23.012784    23.000063 0.00099211105           60 
   51700    1.0198639    1.5297905    3.4472355    23.024668    23.028996    23.031868    23.013139 -0.016349999           60 
   51800    1.0203334    1.5304949    3.4459074    22.994505    22.967726    22.993444    23.022346  -0.03399437           60 
   51900    1.0212238    1.5318304    3.4448138    23.026369    23.009244    23.018891    23.050973 -0.023085852           60 
   52000     1.019492    1.5292327    3.4488863    23.013875    23.012897    23.037805    22.990922  0.010804963           60 
   52100    1.0223112    1.5334614      3.44667    22.982851    23.024905    22.955424    22.968224  0.021670652           60 
   52200    1.0194015     1.529097    3.4451642    22.957376    22.946229    22.946085    22.979813 -0.038832102           60 
   52300    1.0197181    1.5295718    3.4492447       22.995    22.979333    23.057803    22.947864 -0.036969895           60 
   52400    1.0246353    1.5369476    3.4473509    22.967128    22.985699    22.957516    22.958168 -0.044390518           60 
   52500     1.023234    1.5348456    3.4444074    22.998255    22.969525    23.037139    22.988102 -0.0020906384           60 
   52600    1.0217424    1.5326083    3.4445212    23.007648    22.999439    23.027223    22.996283 0.0018228108           60 
   52700     1.022903    1.5343491    3.4481384    23.004054    23.018249    22.981099    23.012813  0.011065792           60 
   52800    1.0216761    1.5325088    3.4453904     23.00067    22.973997    23.039095    22.988917 -0.033348965           60 
   52900    1.0211193    1.5316736    3.4479782    23.042323    23.036294    23.047453    23.043222 -0.0032694917           60 
   53000      1.02024    1.5303547    3.4458821    23.004893    22.998391    23.021752    22.994535 -0.025189261           60 
   53100    1.0221543    1.5332261    3.4429319    23.019753    23.063116    23.029545    22.966597  0.029167618           60 
   53200    1.0212786    1.5319125    3.4491473    23.016471    23.014895    22.991541    23.042977  0.018863089           60 
   53300    1.0221379    1.5332015    3.4477255     22.98064    22.999804    22.987371    22.954747 0.0044878529           60 
   53400    1.0209493    1.5314186    3.4477106    22.982872    23.016555    22.949115    22.982945  0.035061738           60 
   53500    1.0220221    1.5330278    3.4433941    23.022074    23.079655     23.01167    22.974898  0.016806223           60 
   53600    1.0187492    1.5281185    3.4465255    23.008715     22.98734    22.997547    23.041259 -0.014678773           60 
   53700    1.0213076    1.5319561    3.4448567    23.018426    23.029764    23.005816    23.019699  0.015248345           60 
   53800    1.0218032    1.5326995    3.4469894    22.995534    23.019875    22.937133    23.029594  0.023737355           60 
   53900    1.0224064    1.5336042    3.4497217    23.019271     23.02659    23.059306    22.971916 -0.0057977806           60 
   54000    1.0229312    1.5343915    3.4478525    23.016491    23.007842    22.995313    23.046317  0.018865813           60 
   54100    1.0198995     1.529844    3.4482426    22.987097    23.000856    22.975472    22.984963 -0.0006220286           60 
   54200    1.0223944    1.5335863    3.4467274    23.013984    23.013125    23.031944    22.996882  0.013830065           60 
   54300    1.0195113    1.5292616    3.4467846    22.947046    22.931207    22.983563    22.926368 -0.0045562676           60 
   54400     1.023591    1.5353811     3.443637    22.986259    22.941166    23.040923    22.976689  0.020165641           60 
   54500    1.0219794    1.5329639    3.4455021    23.005381    23.027677    23.039685    22.948781 -0.023675823           60 
   54600    1.0197267    1.5295847    3.4450056    23.032976    23.071745    23.042189    22.984994  0.017718472           60 
   54700    1.0215713    1.5323516    3.4454055     23.03536    23.071025    22.995782    23.039272 -0.037038923           60 
   54800    1.0220727    1.5331037    3.4445737    22.999538    23.043438    22.992613    22.962565  0.037550788           60 
   54900    1.0209575    1.5314309    3.4415652    22.980276    23.010537    22.992007    22.938286 -0.025442034           60 
   55000    1.0206861    1.5310238    3.4441373    22.967266    22.938829     22.95269    23.010281 0.0055505034           60 
   55100    1.0199496    1.5299191    3.4434515    22.999507     23.03405    22.973588    22.990882 -0.0072211333           60 
   55200    1.0250688    1.5375979    3.4441065    23.002238    23.038696     22.99717    22.970848 -0.0090600154           60 
   55300    1.0239441    1.5359109     3.446527    23.023012    23.034619    23.044493    22.989924  0.014097732           60 
   55400     1.022235    1.5333471    3.4472438    23.046043    23.087503    23.070627    22.979998 0.0019073661           60 
   55500    1.0224075    1.5336059    3.4457866    23.028379    23.014687    23.044348    23.026102 -0.0032351592           60 
   55600    1.0183655    1.5275429    3.4479861      22.9914    22.968167    23.003708    23.002326 -0.0071897421           60 
   55700    1.0218707    1.5328007    3.4443823    23.028114    23.003551    23.063453    23.017338 -0.0024069778           60 
   55800    1.0212214    1.5318268    3.4432109    23.016537    22.998722    23.032537    23.018353 -0.016680329           60 
   55900    1.0210276     1.531536     3.443727    22.965953     22.96827    22.949381    22.980208 -0.015571921           60 
   56000    1.0252261    1.5378339    3.4463096    23.008838    23.012298    23.033585    22.980631 -0.0062973332           60 
   56100    1.0218794    1.5328138    3.4428226    23.010577    23.006291    23.068843    22.956597  0.010550141           60 
   56200     1.021477    1.5322103    3.4457625    22.998193    23.012177    23.025633    22.956771 0.0012798949           60 
   56300    1.0224967    1.5337397    3.4480862    23.014942    22.980674    23.037726    23.026426  -0.02489435           60 
   56400    1.0232208    1.5348259    3.4474252    22.979432    22.988007    23.001308     22.94898 -0.0087993623           60 
   56500    1.0223022     1.533448    3.4419402    23.028083    23.029357    23.055805    22.999086  0.017674646           60 
   56600    1.0186812    1.5280165    3.4498645    22.976477    22.999931    22.956136    22.973364 0.0068756814           60 
   56700    1.0211882    1.5317769    3.4438338    22.978525    23.008858    22.962681    22.964035 -0.016348719           60 
   56800    1.0208265    1.5312344    3.4484674    23.050161    23.059616    23.050011    23.040854 0.0077493462           60 
   56900    1.0222353    1.5333476    3.4472505    23.024518    23.017273     23.06938      22.9869 0.0072896289           60 
   57000    1.0222078    1.5333063    3.4445274    23.009497    23.017903    23.032922    22.977666 -0.019698449           60 
   57100    1.0244256    1.5366331    3.4453767    22.992246    22.962883    23.031165     22.98269 -0.0051388306           60 
   57200    1.0194196    1.5291241    3.4434717    22.992253    23.017823    22.974154    22.984781 -0.035295526           60 
   57300    1.0231793    1.5347636    3.4420932    22.984772    22.978133    22.991557    22.984626 -0.015420389           60 
   57400    1.0197272    1.5295855    3.4438097    23.004635    22.973702    23.026039    23.014166  0.018109932           60 
   57500    1.0218757    1.5328082     3.446251    23.010361    23.006476    23.000205    23.024401 0.0064254162           60 
   57600    1.0202913    1.5304317    3.4441328    23.014383    23.025732    22.996144    23.021274  0.034895509           60 
   57700    1.0219085    1.5328574     3.443746    23.001341    23.007765    22.999358      22.9969 0.0023806352           60 
   57800    1.0237687    1.5356477    3.4431328       23.022    23.003162    23.003745    23.059093  0.043373851           60 
   57900    1.0221907    1.5332808    3.4440837    22.987847     22.99475     22.99767    22.971123  0.031296263           60 
   58000    1.0212166    1.5318196    3.4433234    23.021341    23.033498    23.029587    23.000938 -0.034616371           60 
   58100    1.0229688    1.5344479    3.4443144    23.032121    23.038881     23.06752    22.989963  0.017724443           60 
   58200    1.0231566    1.5347296    3.4437868    22.994135    22.989784    22.979089    23.013533 -0.0043912498           60 
   58300    1.0207581    1.5311318    3.4459744    22.985329    23.013605    22.951683    22.990699  0.010079931           60 
   58400    1.0212991    1.5319434    3.4438597    22.985741    23.005897    23.011329    22.939998 -0.020484179           60 
   58500    1.0194777    1.5292113    3.4429712     22.99477    22.965203    23.032049    22.987059 -0.016767757           60 
   58600     1.022085    1.5331222    3.4453689    23.012003    23.031054    23.008457    22.996497 0.0054835019           60 
   58700    1.0193526    1.5290236     3.446261    23.006758    23.033944    22.985957    23.000372 -0.0068594748           60 
   58800    1.0215503    1.5323201    3.4471032    23.018322    23.023245    23.004244    23.027477 0.00092641405           60 
   58900    1.0188899    1.5283296    3.4433665    22.995805    22.959511    23.017402    23.010502  0.008385556           60 
   59000    1.0239732    1.5359545    3.4420826    23.002308    22.988118    23.023723    22.995082  0.027631497           60 
[...]
  865400     1.020291    1.5304311    3.4640227    22.377741    21.170179    22.980263     22.98278 0.0025506173          111 
  865500    1.0201067    1.5301548    3.4592958    22.362905    21.199605    22.980596    22.908514  -0.02398866          111 
  865600    1.0196751    1.5295074    3.4610764    22.400495    21.251527    22.974589     22.97537 0.0015838292          111 
  865700    1.0230564    1.5345793    3.4630989    22.389583    21.238589    22.985917    22.944245  0.002536736          111 
  865800    1.0204197    1.5306242    3.4597237    22.413574    21.278469    22.953829    23.008424 -0.014919197          111 
  865900    1.0214464    1.5321643    3.4630275    22.396919    21.319757    22.942548    22.928452  0.017260203          111 
  866000    1.0223676     1.533546    3.4667536    22.401794    21.274464    23.008417    22.922502  0.033677266          111 
  866100    1.0229829    1.5344691    3.4609114    22.411729    21.268619    23.013418     22.95315  0.005929164          111 
  866200    1.0251101    1.5376598     3.457048    22.435998    21.332423    22.985434    22.990138  0.021356261          111 
  866300    1.0250352    1.5375474    3.4604799    22.432089    21.379897     22.94564    22.970729   0.01233421          111 
  866400    1.0204424    1.5306583    3.4595392    22.421327    21.372944    22.943555    22.947481 -0.0075260253          111 
  866500    1.0197817    1.5296672    3.4598712    22.415805    21.333322    22.964385    22.949709 -0.015874292          111 
  866600    1.0236954    1.5355378    3.4608907    22.427249    21.337279    22.999073    22.945396 -0.018355613          111 
  866700    1.0236315    1.5354419    3.4624913     22.41212    21.314221    22.995205    22.926933 -0.026971293          111 
  866800     1.023155    1.5347272    3.4588066    22.380004    21.323645    22.915986    22.900382 -0.031295756          111 
  866900    1.0194774    1.5292107    3.4604256    22.438089    21.338409    23.024976    22.950883  0.017256972          111 
  867000    1.0196336    1.5294452    3.4610784    22.423621    21.310179      23.0164    22.944284 0.0065700471          111 
  867100    1.0219726    1.5329536     3.463773    22.423289    21.343922    22.960806    22.965139 -0.060361754          111 
  867200    1.0203493    1.5305187    3.4576459    22.429972    21.343838    23.001023    22.945056 0.0041405522          111 
  867300    1.0244857    1.5367232    3.4614445    22.431277    21.346049     22.97244    22.975341 -0.032980401          111 
  867400    1.0214732    1.5322045     3.457443    22.412602    21.352389    22.933591    22.951825 -0.0096776047          111 
  867500    1.0256633    1.5384897    3.4588525    22.439556    21.399235    22.981538    22.937895 -0.011054733          111 
  867600    1.0205896    1.5308791    3.4592246    22.393802    21.368634    22.955697    22.857074 -0.0036792103          111 
  867700    1.0227656    1.5341431     3.455528     22.42537     21.36637    22.962472    22.947269 0.0093695403          111 
  867800    1.0207287    1.5310878    3.4583277    22.407942    21.362949    22.931795    22.929081 0.0041224654          111 
  867900    1.0188568    1.5282799    3.4570951    22.417137    21.345332     22.94295    22.963131  0.011289815          111 
  868000    1.0219572    1.5329304    3.4590191    22.441596    21.443329    22.969556    22.911904  0.015285543          111 
  868100    1.0212338    1.5318454     3.458367    22.408999    21.361997    22.942339     22.92266 -0.022422961          111 
  868200    1.0227906    1.5341806     3.456334     22.45232    21.449294    22.954786    22.952879 -0.030304982          111 
  868300    1.0218425    1.5327584    3.4561644    22.467887    21.450297    22.997379    22.955986 -0.023334974          111 
  868400    1.0230541    1.5345758    3.4571733    22.448191    21.378566    22.977476    22.988529  0.025158343          111 
  868500    1.0224732    1.5337045    3.4575107    22.471844    21.428434    22.994318    22.992782  0.025632357          111 
  868600    1.0223673    1.5335457    3.4578302    22.464971    21.425607     22.99905    22.970258 0.0087478713          111 
  868700    1.0218241    1.5327308    3.4579186    22.428963    21.387685    22.943604    22.955601 -0.0078648168          111 
  868800    1.0208252    1.5312325    3.4586399    22.429498     21.41489    22.915718    22.957886 -0.015093569          111 
  868900    1.0202476    1.5303661     3.453967    22.475715    21.455362    22.977964    22.993819 -0.026890412          111 
  869000     1.021133    1.5316942    3.4581691    22.465251    21.421001    22.979526    22.995226 0.0093718509          111 
  869100    1.0211143    1.5316661    3.4561133     22.47203    21.472205    22.973686      22.9702 0.0040911291          111 
  869200    1.0199578    1.5299313    3.4552761    22.468382    21.439149    22.971007    22.994989  0.010125267          111 
  869300    1.0194199    1.5291246    3.4568658    22.434073    21.398786    22.982055    22.921378  0.016410048          111 
  869400    1.0225426    1.5338086    3.4540809    22.433856    21.396078    22.960661    22.944829  0.014686799          111 
  869500    1.0222124    1.5333133    3.4556492    22.467235    21.464939    22.978091    22.958676 -0.0021278829          111 
  869600    1.0219279    1.5328866    3.4570479     22.43806    21.454308    22.965289    22.894583 -0.011302307          111 
  869700    1.0210454    1.5315629    3.4541996    22.456791     21.46032    22.941564    22.968488 -0.0022234068          111 
  869800    1.0208531    1.5312743    3.4525674    22.417488    21.408592    22.951823    22.892049 0.0094001995          111 
  869900     1.020319    1.5304731    3.4540669    22.462182    21.424133    22.988602     22.97381 0.0018282551          111 
  870000    1.0243312    1.5364914    3.4551689    22.430096    21.408552    22.958065    22.923671   0.01853558          114 
  870100     1.021756    1.5326288    3.4686714    22.336054    21.059892    22.965958    22.982312 -0.054044869          114 
  870200    1.0227335     1.534095     3.468817    22.359556    21.138134    22.991061    22.949475 -0.029324692          114 
  870300    1.0223723    1.5335532    3.4676869    22.370833    21.177328    22.960871      22.9743  0.021940926          114 
  870400    1.0221386    1.5332026    3.4669577    22.359104    21.127883    23.030799    22.918631  0.028249972          114 
  870500    1.0191755    1.5287579    3.4639091    22.402327    21.281181    22.972167    22.953634  0.019074819          114 
  870600    1.0215636    1.5323401     3.462201    22.377264    21.165209    22.966829    22.999754  0.024932911          114 
  870700    1.0183571    1.5275303    3.4694992    22.353516    21.182703    22.957925    22.919919  0.027413442          114 
  870800    1.0204598    1.5306844    3.4644963    22.393191    21.249508    23.012101    22.917963 -0.024871965          114 
  870900    1.0198672    1.5297954    3.4623469    22.383118     21.23359    23.002586    22.913178 -0.027357054          114 
  871000    1.0200151    1.5300173    3.4661634    22.408635    21.237815    22.982319    23.005773  0.016466953          114 
  871100    1.0205179    1.5307716    3.4648565    22.411532    21.267427     22.97218    22.994988 0.00088745467          114 
  871200    1.0224599    1.5336846    3.4620717    22.371907    21.251321     22.91447     22.94993 -0.012234176          114 
  871300     1.021323    1.5319792    3.4644394    22.374049    21.272726    22.965356    22.884066 -0.0054227706          114 
  871400    1.0219682     1.532947    3.4635601    22.392383    21.268903     22.95499    22.953256 0.00045599831          114 
  871500    1.0229128    1.5343639    3.4611727     22.38605    21.210578     22.98633    22.961241  0.012481827          114 
  871600    1.0210725    1.5316034    3.4632597    22.421305    21.272442    22.989448    23.002024  0.016454586          114 
  871700    1.0234526    1.5351736    3.4654738    22.385412    21.294679     22.96709    22.894468 -0.023775251          114 
  871800    1.0189076    1.5283561    3.4623397    22.415479    21.307206    22.969839    22.969393 -4.7901129e-05          114 
  871900    1.0235161    1.5352689    3.4603903    22.444775    21.335613    22.998173    23.000539 -0.018068333          114 
  872000    1.0238431    1.5357594       3.4623    22.412532    21.316045    22.924276    22.997274 -0.019148079          114 
  872100    1.0196137    1.5294152    3.4608862    22.386834    21.275458    22.963069    22.921977 0.0088641604          114 
  872200     1.018701    1.5280461    3.4622372    22.391535    21.281826    22.954909    22.937869  0.010214468          114 
  872300    1.0212746    1.5319065    3.4630495     22.40611     21.30685    22.975646    22.935836 -0.00052798552          114 
  872400    1.0209468    1.5314149    3.4607341    22.410146    21.271974    22.978979    22.979484 -0.033604774          114 
  872500    1.0220968    1.5331399    3.4624762    22.381236    21.296952     22.91673    22.930026  0.015985875          114 
  872600    1.0243107    1.5364607    3.4614149     22.45104    21.308481    23.021067    23.023571 -0.0048248358          114 
  872700    1.0199908    1.5299808    3.4611154    22.436311    21.301865    22.980449    23.026618  0.011928877          114 
  872800    1.0210385    1.5315525     3.459959    22.396838    21.298984    22.967194    22.924336 -0.025691238          114 
  872900    1.0227577    1.5341312    3.4589112    22.444706    21.359923     22.99431    22.979884 -0.007768265          114 
  873000    1.0191834    1.5287698    3.4553852    22.459625    21.398229    23.033682    22.946963 0.0042520769          114 
  873100    1.0183421    1.5275078    3.4554986    22.401553    21.345116    22.959998    22.899545  0.025310201          114 
  873200    1.0202881    1.5304268    3.4578096    22.408802    21.321223    22.972232    22.932953  0.027260758          114 
  873300    1.0204224    1.5306283    3.4593559    22.408195    21.297455    22.955505    22.971626  0.025543425          114 
  873400    1.0242979    1.5364416    3.4609889    22.415422    21.284143    22.955424    23.006698  0.017356429          114 
  873500    1.0219003    1.5328452    3.4563063    22.401952    21.284427    22.969628      22.9518 -0.0079216008          114 
  873600    1.0236488    1.5354678    3.4595165     22.44111    21.365301    22.987496    22.970534 -0.015070599          114 
  873700    1.0225549    1.5338271    3.4593979    22.431727     21.37347    22.996247    22.925463  -0.01801888          114 
  873800    1.0232046    1.5348016    3.4616131    22.458732    21.404703    22.964211    23.007282 -0.00050477498          114 
  873900    1.0206162    1.5309189    3.4588205    22.450994    21.402155    22.999479    22.951348 -0.0046687642          114 
  874000    1.0227996     1.534194    3.4560397    22.392364    21.315745    22.919418    22.941929 -0.013372017          114 
  874100    1.0230162     1.534519    3.4601107    22.443667    21.314785       23.006    23.010216 0.0082847873          114 
  874200    1.0216549     1.532477    3.4582125    22.450701    21.378248    23.009941    22.963915 0.0078926917          114 
  874300    1.0205449     1.530812    3.4547877    22.389094     21.31842    22.927033    22.921828 -0.010697196          114 
  874400    1.0208288    1.5312379    3.4537192    22.404758     21.33349    22.926351    22.954434 -0.022017903          114 
  874500    1.0212327    1.5318437    3.4601926    22.420019    21.346501     22.99244    22.921117  0.046531742          114 
  874600    1.0232577    1.5348813    3.4542688    22.421084    21.331796    22.987752    22.943703  0.021642969          114 
  874700    1.0234585    1.5351824     3.455807    22.464121    21.416546    22.963307     23.01251 -0.031890155          114 
  874800     1.020476    1.5307087    3.4582291    22.405953    21.369111    22.935319    22.913429 -0.004467261          114 
  874900    1.0237053    1.5355527    3.4561576     22.46615    21.409871    22.977163    23.011417  0.021078611          114 
  875000    1.0211612    1.5317364    3.4585598    22.468265    21.392833    23.024966    22.986994  0.011635463          117 
  875100    1.0206495    1.5309689    3.4712266    22.325619    21.054742    22.949258    22.972857 -0.0012523865          117 
  875200    1.0209709     1.531451    3.4707806    22.330052    21.083954    22.969449    22.936753 -0.017637296          117 
  875300    1.0227374    1.5341008    3.4661417    22.361881    21.158967    22.966688    22.959988  0.016928553          117 
  875400    1.0210761    1.5316089    3.4668284     22.38191    21.160685    23.016702    22.968341  0.026563597          117 
  875500    1.0207976    1.5311912    3.4669214     22.36433    21.193444    22.965662    22.933885 -0.0050646438          117 
  875600     1.022562    1.5338377    3.4661596    22.331743     21.11972    22.975121    22.900388  0.028680448          117 
  875700    1.0225459    1.5338134    3.4670537    22.360077    21.166426    22.990374    22.923431 -0.018932464          117 
  875800     1.020228    1.5303366    3.4668549    22.398701    21.209398    23.021153    22.965551 -0.028882724          117 
  875900     1.024018    1.5360217    3.4644332     22.36576    21.194293    22.962834    22.940155 -0.029463328          117 
  876000    1.0208096    1.5312091    3.4687372    22.360631    21.180622     22.94081    22.960461  0.042629145          117 
  876100     1.024983    1.5374692    3.4693164    22.367977    21.129371    22.997053    22.977505 -0.041939881          117 
  876200    1.0223385    1.5335024     3.467104    22.389186    21.248831    22.999855    22.918872 -0.0019063188          117 
  876300    1.0238089    1.5357081    3.4624475    22.386358    21.208311    22.986792    22.963971 -0.0019124185          117 
  876400    1.0212769      1.53191    3.4645406    22.345578    21.199691    22.928913    22.908131  0.018355104          117 
  876500    1.0214767    1.5322097    3.4657747    22.387976    21.233346    22.959428    22.971154 -0.016472897          117 
  876600    1.0248441    1.5372608    3.4644277    22.391919    21.221876    22.977511     22.97637  0.029197288          117 
  876700    1.0190685    1.5285975    3.4648763    22.332369    21.178212    22.924788    22.894106 -0.015658026          117 
  876800    1.0209354    1.5313978    3.4657329    22.412437    21.303957    22.967282    22.966071  0.040317515          117 
  876900    1.0221388    1.5332029    3.4653635    22.392239    21.284047    22.995002    22.897668  0.051449451          117 
  877000    1.0201529    1.5302241    3.4667363     22.38705    21.228715    22.985471    22.946965 -0.014518322          117 
  877100    1.0231086    1.5346576    3.4619658     22.37785    21.236401    22.967913    22.929237 0.0067612818          117 
  877200      1.02072    1.5310747    3.4634056    22.385613    21.251054     22.98622    22.919566 -0.020062598          117 
  877300    1.0197437    1.5296103    3.4638186     22.35712    21.278966    22.915662    22.876731 -0.023057384          117 
  877400    1.0192563    1.5288791    3.4593844    22.390792    21.280471    22.956528    22.935378 -0.0070018095          117 
  877500    1.0219387    1.5329027    3.4635378    22.405105    21.321608    22.973478    22.920228 0.0052333289          117 
  877600    1.0202113    1.5303116    3.4644456    22.403667    21.260956    22.991981    22.958064 -0.0062922614          117 
  877700     1.019536    1.5292987    3.4652676    22.362433    21.273242     22.91987    22.894189 0.0095907726          117 
  877800    1.0229203    1.5343752    3.4625151    22.397422    21.304742    22.931975    22.955549 -0.010775462          117 
  877900    1.0232885    1.5349275    3.4622927    22.417415    21.329007    22.993053    22.930184 -0.016561545          117 
  878000    1.0192673    1.5288957    3.4628083    22.415217    21.291735    22.974882    22.979035   0.04466909          117 
  878100    1.0223431    1.5335093    3.4652207    22.372935    21.249736    22.931095    22.937972 0.0082334116          117 
  878200    1.0223735     1.533555    3.4618209    22.412118    21.312456    22.972913    22.950986  0.034468116          117 
  878300    1.0209707    1.5314507    3.4605673    22.400901    21.289946    22.984649    22.928107 0.0011296059          117 
  878400    1.0175031    1.5262493    3.4651109    22.382296    21.268574     22.98337    22.894942 -0.032368408          117 
  878500    1.0221582     1.533232    3.4584209    22.439996    21.385295    22.971916    22.962778 0.0090240698          117 
  878600    1.0220171    1.5330203    3.4594675    22.414263    21.309188    22.988305    22.945297 -0.005642517          117 
  878700    1.0213905    1.5320805    3.4593852    22.396409     21.29386    22.944952    22.950415  0.015953864          117 
  878800    1.0175913    1.5263816    3.4610418    22.393915    21.331406    22.913053    22.937285  0.014365668          117 
  878900    1.0234474    1.5351658    3.4596953    22.447309    21.357808    23.028747    22.955371  0.024244649          117 
  879000    1.0194537    1.5291752    3.4594755    22.418604    21.336345    22.958821    22.960644 -0.020960039          117 
  879100    1.0212904    1.5319303    3.4586168    22.404652    21.308297    22.956068    22.949591  0.032623337          117 
  879200    1.0186115     1.527912    3.4604868    22.419936    21.351331    22.974079    22.934399 -0.0017999718          117 
  879300    1.0215271    1.5322854    3.4602669    22.416143    21.338799    22.930042    22.979589 -0.0097839305          117 
  879400    1.0204669     1.530695    3.4616553    22.425063    21.367307    22.931231     22.97665 -0.0085167976          117 
  879500    1.0205671    1.5308453    3.4560688    22.404115    21.352295    22.919501    22.940549 -0.0049178794          117 
  879600    1.0206776     1.531011    3.4616327    22.382538    21.302026     22.92122    22.924368 0.0051866959          117 
  879700    1.0223033    1.5334496    3.4591313    22.417697    21.365352    22.960077    22.927661 0.0022911616          117 
  879800    1.0229939    1.5344855    3.4634946    22.427901    21.363594    22.999537    22.920571 -0.019591149          117 
  879900    1.0230454    1.5345628    3.4604085    22.414925    21.325241    23.004774    22.914761 0.0091190583          117 
  880000    1.0199329     1.529894    3.4614939     22.41715     21.33546    23.012782    22.903209 -0.013729191          120 
Loop time of 6440.22 on 16 procs for 100000 steps with 288000 atoms

Performance: 40247.082 tau/day, 15.527 timesteps/s
98.8% CPU use with 16 MPI tasks x 1 OpenMP threads

MPI task timing breakdown:
Section |  min time  |  avg time  |  max time  |%varavg| %total
---------------------------------------------------------------
Pair    | 2598.7     | 2926.8     | 3265.7     | 354.4 | 45.45
Bond    | 22.912     | 41.134     | 54.853     | 175.2 |  0.64
Neigh   | 2396.5     | 2403.9     | 2409.4     |   7.2 | 37.33
Comm    | 299.72     | 649.56     | 997.56     | 791.4 | 10.09
Output  | 1.1279     | 1.1859     | 1.2841     |   4.7 |  0.02
Modify  | 384.79     | 397.55     | 418.27     |  49.4 |  6.17
Other   |            | 20.17      |            |       |  0.31

Nlocal:    18000 ave 18213 max 17801 min
Histogram: 1 1 2 2 3 2 2 1 0 2
Nghost:    15471.7 ave 15637 max 15377 min
Histogram: 2 4 1 4 1 0 1 1 1 1
Neighs:    51519.8 ave 102521 max 13143 min
Histogram: 2 2 0 3 5 0 2 1 0 1

Total # of neighbors = 824317
Ave neighs/atom = 2.86221
Ave special neighs/atom = 0.397222
Neighbor list builds = 20000
Dangerous builds = 20000
undump	myDump-stretch

Total wall time: 13:28:35
